# vtk DataFile Version 2.0
./output/onsasExample_nonLinearCantileverBlade_staitc3D_pitch numElements=10/onsasExample_nonLinearCantileverBlade_staitc3D_pitch numElements=10_0022.vtk
ASCII
DATASET UNSTRUCTURED_GRID

POINTS 800 float
       1.534567e-24      -7.180703e-02      -7.180703e-02 
       1.307111e-24       7.180703e-02      -7.180703e-02 
      -1.534567e-24       7.180703e-02       7.180703e-02 
      -1.307111e-24      -7.180703e-02       7.180703e-02 
       1.000000e-01      -7.180703e-02      -7.180703e-02 
       1.000000e-01       7.180703e-02      -7.180703e-02 
       1.000000e-01       7.180703e-02       7.180703e-02 
       1.000000e-01      -7.180703e-02       7.180703e-02 
       1.000000e-01      -7.180703e-02      -7.180703e-02 
       1.000000e-01       7.180703e-02      -7.180703e-02 
       1.000000e-01       7.180703e-02       7.180703e-02 
       1.000000e-01      -7.180703e-02       7.180703e-02 
       2.000000e-01      -7.180703e-02      -7.180703e-02 
       2.000000e-01       7.180703e-02      -7.180703e-02 
       2.000000e-01       7.180703e-02       7.180704e-02 
       2.000000e-01      -7.180703e-02       7.180704e-02 
       2.000000e-01      -7.180703e-02      -7.180703e-02 
       2.000000e-01       7.180703e-02      -7.180703e-02 
       2.000000e-01       7.180703e-02       7.180704e-02 
       2.000000e-01      -7.180703e-02       7.180704e-02 
       3.000000e-01      -7.180703e-02      -7.180702e-02 
       3.000000e-01       7.180704e-02      -7.180702e-02 
       3.000000e-01       7.180704e-02       7.180705e-02 
       3.000000e-01      -7.180703e-02       7.180705e-02 
       3.000000e-01      -7.180703e-02      -7.180702e-02 
       3.000000e-01       7.180704e-02      -7.180702e-02 
       3.000000e-01       7.180704e-02       7.180705e-02 
       3.000000e-01      -7.180703e-02       7.180705e-02 
       4.000000e-01      -7.180703e-02      -7.180700e-02 
       4.000000e-01       7.180704e-02      -7.180700e-02 
       4.000000e-01       7.180704e-02       7.180706e-02 
       4.000000e-01      -7.180703e-02       7.180706e-02 
       4.000000e-01      -7.180703e-02      -7.180700e-02 
       4.000000e-01       7.180704e-02      -7.180700e-02 
       4.000000e-01       7.180704e-02       7.180706e-02 
       4.000000e-01      -7.180703e-02       7.180706e-02 
       5.000000e-01      -7.180703e-02      -7.180699e-02 
       5.000000e-01       7.180704e-02      -7.180699e-02 
       5.000000e-01       7.180704e-02       7.180708e-02 
       5.000000e-01      -7.180703e-02       7.180708e-02 
       5.000000e-01      -7.180703e-02      -7.180699e-02 
       5.000000e-01       7.180704e-02      -7.180699e-02 
       5.000000e-01       7.180704e-02       7.180708e-02 
       5.000000e-01      -7.180703e-02       7.180708e-02 
       6.000000e-01      -7.180702e-02      -7.180697e-02 
       6.000000e-01       7.180704e-02      -7.180697e-02 
       6.000000e-01       7.180704e-02       7.180710e-02 
       6.000000e-01      -7.180702e-02       7.180710e-02 
       6.000000e-01      -7.180702e-02      -7.180697e-02 
       6.000000e-01       7.180704e-02      -7.180697e-02 
       6.000000e-01       7.180704e-02       7.180710e-02 
       6.000000e-01      -7.180702e-02       7.180710e-02 
       7.000000e-01      -7.180702e-02      -7.180695e-02 
       7.000000e-01       7.180705e-02      -7.180695e-02 
       7.000000e-01       7.180705e-02       7.180712e-02 
       7.000000e-01      -7.180702e-02       7.180712e-02 
       7.000000e-01      -7.180702e-02      -7.180695e-02 
       7.000000e-01       7.180705e-02      -7.180695e-02 
       7.000000e-01       7.180705e-02       7.180712e-02 
       7.000000e-01      -7.180702e-02       7.180712e-02 
       8.000000e-01      -7.180701e-02      -7.180692e-02 
       8.000000e-01       7.180705e-02      -7.180692e-02 
       8.000000e-01       7.180705e-02       7.180715e-02 
       8.000000e-01      -7.180701e-02       7.180715e-02 
       8.000000e-01      -7.180701e-02      -7.180692e-02 
       8.000000e-01       7.180705e-02      -7.180692e-02 
       8.000000e-01       7.180705e-02       7.180715e-02 
       8.000000e-01      -7.180701e-02       7.180715e-02 
       9.000000e-01      -7.180701e-02      -7.180689e-02 
       9.000000e-01       7.180706e-02      -7.180689e-02 
       9.000000e-01       7.180706e-02       7.180717e-02 
       9.000000e-01      -7.180701e-02       7.180718e-02 
       9.000000e-01      -7.180701e-02      -7.180689e-02 
       9.000000e-01       7.180706e-02      -7.180689e-02 
       9.000000e-01       7.180706e-02       7.180717e-02 
       9.000000e-01      -7.180701e-02       7.180718e-02 
       1.000000e+00      -7.180700e-02      -7.180686e-02 
       1.000000e+00       7.180706e-02      -7.180686e-02 
       1.000000e+00       7.180706e-02       7.180721e-02 
       1.000000e+00      -7.180700e-02       7.180721e-02 
       1.000000e+00      -7.180700e-02      -7.180686e-02 
       1.000000e+00       7.180706e-02      -7.180686e-02 
       1.000000e+00       7.180706e-02       7.180721e-02 
       1.000000e+00      -7.180700e-02       7.180721e-02 
       1.100000e+00      -7.180700e-02      -7.180682e-02 
       1.100000e+00       7.180707e-02      -7.180682e-02 
       1.100000e+00       7.180707e-02       7.180724e-02 
       1.100000e+00      -7.180700e-02       7.180724e-02 
       1.100000e+00      -7.180700e-02      -7.180682e-02 
       1.100000e+00       7.180707e-02      -7.180682e-02 
       1.100000e+00       7.180707e-02       7.180724e-02 
       1.100000e+00      -7.180700e-02       7.180724e-02 
       1.200000e+00      -7.180699e-02      -7.180679e-02 
       1.200000e+00       7.180707e-02      -7.180679e-02 
       1.200000e+00       7.180707e-02       7.180728e-02 
       1.200000e+00      -7.180699e-02       7.180728e-02 
       1.200000e+00      -7.180699e-02      -7.180679e-02 
       1.200000e+00       7.180707e-02      -7.180679e-02 
       1.200000e+00       7.180707e-02       7.180728e-02 
       1.200000e+00      -7.180699e-02       7.180728e-02 
       1.300000e+00      -7.180699e-02      -7.180674e-02 
       1.300000e+00       7.180708e-02      -7.180675e-02 
       1.300000e+00       7.180708e-02       7.180732e-02 
       1.300000e+00      -7.180698e-02       7.180732e-02 
       1.300000e+00      -7.180699e-02      -7.180674e-02 
       1.300000e+00       7.180708e-02      -7.180675e-02 
       1.300000e+00       7.180708e-02       7.180732e-02 
       1.300000e+00      -7.180698e-02       7.180732e-02 
       1.400000e+00      -7.180698e-02      -7.180670e-02 
       1.400000e+00       7.180709e-02      -7.180670e-02 
       1.400000e+00       7.180709e-02       7.180736e-02 
       1.400000e+00      -7.180698e-02       7.180737e-02 
       1.400000e+00      -7.180698e-02      -7.180670e-02 
       1.400000e+00       7.180709e-02      -7.180670e-02 
       1.400000e+00       7.180709e-02       7.180736e-02 
       1.400000e+00      -7.180698e-02       7.180737e-02 
       1.500000e+00      -7.180697e-02      -7.180665e-02 
       1.500000e+00       7.180710e-02      -7.180666e-02 
       1.500000e+00       7.180710e-02       7.180741e-02 
       1.500000e+00      -7.180697e-02       7.180741e-02 
       1.500000e+00      -7.180697e-02      -7.180665e-02 
       1.500000e+00       7.180710e-02      -7.180666e-02 
       1.500000e+00       7.180710e-02       7.180741e-02 
       1.500000e+00      -7.180697e-02       7.180741e-02 
       1.600000e+00      -7.180696e-02      -7.180661e-02 
       1.600000e+00       7.180710e-02      -7.180661e-02 
       1.600000e+00       7.180710e-02       7.180746e-02 
       1.600000e+00      -7.180696e-02       7.180746e-02 
       1.600000e+00      -7.180696e-02      -7.180661e-02 
       1.600000e+00       7.180710e-02      -7.180661e-02 
       1.600000e+00       7.180710e-02       7.180746e-02 
       1.600000e+00      -7.180696e-02       7.180746e-02 
       1.700000e+00      -7.180695e-02      -7.180655e-02 
       1.700000e+00       7.180711e-02      -7.180655e-02 
       1.700000e+00       7.180711e-02       7.180751e-02 
       1.700000e+00      -7.180695e-02       7.180751e-02 
       1.700000e+00      -7.180695e-02      -7.180655e-02 
       1.700000e+00       7.180711e-02      -7.180655e-02 
       1.700000e+00       7.180711e-02       7.180751e-02 
       1.700000e+00      -7.180695e-02       7.180751e-02 
       1.800000e+00      -7.180695e-02      -7.180650e-02 
       1.800000e+00       7.180712e-02      -7.180650e-02 
       1.800000e+00       7.180712e-02       7.180757e-02 
       1.800000e+00      -7.180694e-02       7.180757e-02 
       1.800000e+00      -7.180695e-02      -7.180650e-02 
       1.800000e+00       7.180712e-02      -7.180650e-02 
       1.800000e+00       7.180712e-02       7.180757e-02 
       1.800000e+00      -7.180694e-02       7.180757e-02 
       1.900000e+00      -7.180694e-02      -7.180644e-02 
       1.900000e+00       7.180713e-02      -7.180644e-02 
       1.900000e+00       7.180713e-02       7.180762e-02 
       1.900000e+00      -7.180693e-02       7.180762e-02 
       1.900000e+00      -7.180694e-02      -7.180644e-02 
       1.900000e+00       7.180713e-02      -7.180644e-02 
       1.900000e+00       7.180713e-02       7.180762e-02 
       1.900000e+00      -7.180693e-02       7.180762e-02 
       2.000000e+00      -7.180693e-02      -7.180638e-02 
       2.000000e+00       7.180714e-02      -7.180638e-02 
       2.000000e+00       7.180714e-02       7.180768e-02 
       2.000000e+00      -7.180692e-02       7.180768e-02 
       2.000000e+00      -7.180693e-02      -7.180638e-02 
       2.000000e+00       7.180714e-02      -7.180638e-02 
       2.000000e+00       7.180714e-02       7.180768e-02 
       2.000000e+00      -7.180692e-02       7.180768e-02 
       2.100000e+00      -7.180692e-02      -7.180632e-02 
[...]
POINT_DATA       800 
VECTORS Displacements float
       1.53456724e-24       0.00000000e+00      -1.38777878e-17 
       1.30711127e-24       0.00000000e+00       0.00000000e+00 
      -1.53456724e-24       0.00000000e+00       1.38777878e-17 
      -1.30711127e-24       0.00000000e+00       0.00000000e+00 
       3.07643583e-09       2.66934599e-10       1.88236475e-09 
       2.20248264e-09       2.66934599e-10       1.80574226e-09 
      -3.07724968e-09       3.43557072e-10       1.80574215e-09 
      -2.20329650e-09       3.43557072e-10       1.88236465e-09 
       3.07643583e-09       2.66934599e-10       1.88236475e-09 
       2.20248264e-09       2.66934599e-10       1.80574226e-09 
      -3.07724968e-09       3.43557072e-10       1.80574215e-09 
      -2.20329650e-09       3.43557072e-10       1.88236465e-09 
       6.09375081e-09       1.13656569e-09       7.40574373e-09 
       4.36263706e-09       1.13656567e-09       7.25249873e-09 
      -6.09537981e-09       1.28981055e-09       7.25249834e-09 
      -4.36426609e-09       1.28981056e-09       7.40574335e-09 
       6.09375081e-09       1.13656569e-09       7.40574373e-09 
       4.36263706e-09       1.13656567e-09       7.25249873e-09 
      -6.09537981e-09       1.28981055e-09       7.25249834e-09 
      -4.36426609e-09       1.28981056e-09       7.40574335e-09 
       9.05194503e-09       2.59720036e-09       1.64994978e-08 
       6.48046333e-09       2.59720032e-09       1.62696303e-08 
      -9.05439040e-09       2.82706758e-09       1.62696294e-08 
      -6.48290871e-09       2.82706762e-09       1.64994970e-08 
       9.05194503e-09       2.59720036e-09       1.64994978e-08 
       6.48046333e-09       2.59720032e-09       1.62696303e-08 
      -9.05439040e-09       2.82706758e-09       1.62696294e-08 
      -6.48290871e-09       2.82706762e-09       1.64994970e-08 
       1.19510183e-08       4.63714571e-09       2.90929878e-08 
       8.55596138e-09       4.63714568e-09       2.87864977e-08 
      -1.19542815e-08       4.94363529e-09       2.87864963e-08 
      -8.55922450e-09       4.94363533e-09       2.90929864e-08 
       1.19510183e-08       4.63714571e-09       2.90929878e-08 
       8.55596138e-09       4.63714568e-09       2.87864977e-08 
      -1.19542815e-08       4.94363529e-09       2.87864963e-08 
      -8.55922450e-09       4.94363533e-09       2.90929864e-08 
       1.47909709e-08       7.24470889e-09       4.51155747e-08 
       1.05891313e-08       7.24470882e-09       4.47324620e-08 
      -1.47950529e-08       7.62782079e-09       4.47324597e-08 
      -1.05932133e-08       7.62782086e-09       4.51155724e-08 
       1.47909709e-08       7.24470889e-09       4.51155747e-08 
       1.05891313e-08       7.24470882e-09       4.47324620e-08 
      -1.47950529e-08       7.62782079e-09       4.47324597e-08 
      -1.05932133e-08       7.62782086e-09       4.51155724e-08 
       1.75718027e-08       1.04081970e-08       6.44966192e-08 
       1.25799732e-08       1.04081969e-08       6.40368839e-08 
      -1.75767048e-08       1.08679312e-08       6.40368807e-08 
      -1.25848751e-08       1.08679313e-08       6.44966160e-08 
       1.75718027e-08       1.04081970e-08       6.44966192e-08 
       1.25799732e-08       1.04081969e-08       6.40368839e-08 
      -1.75767048e-08       1.08679312e-08       6.40368807e-08 
      -1.25848751e-08       1.08679313e-08       6.44966160e-08 
       2.02935138e-08       1.41159171e-08       8.71654822e-08 
       1.45284867e-08       1.41159170e-08       8.66291242e-08 
      -2.02992370e-08       1.46522736e-08       8.66291200e-08 
      -1.45342101e-08       1.46522737e-08       8.71654780e-08 
       2.02935138e-08       1.41159171e-08       8.71654822e-08 
       1.45284867e-08       1.41159170e-08       8.66291242e-08 
      -2.02992370e-08       1.46522736e-08       8.66291200e-08 
      -1.45342101e-08       1.46522737e-08       8.71654780e-08 
       2.29561039e-08       1.83561764e-08       1.13051525e-07 
       1.64346722e-08       1.83561762e-08       1.12438544e-07 
      -2.29626497e-08       1.89691551e-08       1.12438539e-07 
      -1.64412179e-08       1.89691552e-08       1.13051519e-07 
       2.29561039e-08       1.83561764e-08       1.13051525e-07 
       1.64346722e-08       1.83561762e-08       1.12438544e-07 
      -2.29626497e-08       1.89691551e-08       1.12438539e-07 
      -1.64412179e-08       1.89691552e-08       1.13051519e-07 
       2.55595735e-08       2.31172819e-08       1.42084107e-07 
       1.82985295e-08       2.31172818e-08       1.41394504e-07 
      -2.55669428e-08       2.38068829e-08       1.41394497e-07 
      -1.83058988e-08       2.38068830e-08       1.42084101e-07 
       2.55595735e-08       2.31172819e-08       1.42084107e-07 
       1.82985295e-08       2.31172818e-08       1.41394504e-07 
      -2.55669428e-08       2.38068829e-08       1.41394497e-07 
      -1.83058988e-08       2.38068830e-08       1.42084101e-07 
       2.81039223e-08       2.83875409e-08       1.74192591e-07 
       2.01200587e-08       2.83875406e-08       1.73426365e-07 
      -2.81121162e-08       2.91537640e-08       1.73426357e-07 
      -2.01282526e-08       2.91537642e-08       1.74192583e-07 
       2.81039223e-08       2.83875408e-08       1.74192591e-07 
       2.01200587e-08       2.83875407e-08       1.73426365e-07 
      -2.81121161e-08       2.91537640e-08       1.73426357e-07 
      -2.01282527e-08       2.91537642e-08       1.74192583e-07 
       3.05924075e-08       3.41594984e-08       2.09303543e-07 
       2.19016334e-08       3.41594981e-08       2.08468760e-07 
      -3.06011358e-08       3.49942778e-08       2.08468750e-07 
      -2.19103617e-08       3.49942780e-08       2.09303533e-07 
       3.05924075e-08       3.41594984e-08       2.09303543e-07 
       2.19016334e-08       3.41594981e-08       2.08468760e-07 
      -3.06011358e-08       3.49942778e-08       2.08468750e-07 
      -2.19103617e-08       3.49942780e-08       2.09303533e-07 
       3.30279943e-08       4.04184543e-08       2.47356553e-07 
       2.36453346e-08       4.04184540e-08       2.46453214e-07 
      -3.30372598e-08       4.13217900e-08       2.46453203e-07 
      -2.36546001e-08       4.13217903e-08       2.47356542e-07 
       3.30279943e-08       4.04184543e-08       2.47356553e-07 
       2.36453346e-08       4.04184540e-08       2.46453214e-07 
      -3.30372598e-08       4.13217900e-08       2.46453203e-07 
      -2.36546001e-08       4.13217903e-08       2.47356542e-07 
       3.54106828e-08       4.71539467e-08       2.88288419e-07 
       2.53511623e-08       4.71539463e-08       2.87316522e-07 
      -3.54204885e-08       4.81258386e-08       2.87316510e-07 
      -2.53609680e-08       4.81258389e-08       2.88288406e-07 
       3.54106828e-08       4.71539467e-08       2.88288419e-07 
       2.53511623e-08       4.71539463e-08       2.87316522e-07 
      -3.54204885e-08       4.81258386e-08       2.87316510e-07 
      -2.53609680e-08       4.81258389e-08       2.88288406e-07 
       3.77404730e-08       5.43555134e-08       3.32035936e-07 
       2.70191165e-08       5.43555130e-08       3.30995483e-07 
      -3.77508214e-08       5.53959615e-08       3.30995468e-07 
      -2.70294651e-08       5.53959619e-08       3.32035921e-07 
       3.77404730e-08       5.43555134e-08       3.32035936e-07 
       2.70191165e-08       5.43555130e-08       3.30995483e-07 
      -3.77508214e-08       5.53959615e-08       3.30995468e-07 
      -2.70294651e-08       5.53959619e-08       3.32035921e-07 
       4.00173645e-08       6.20126923e-08       3.78535901e-07 
       2.86491975e-08       6.20126919e-08       3.77426891e-07 
      -4.00282585e-08       6.31216967e-08       3.77426875e-07 
      -2.86600916e-08       6.31216972e-08       3.78535885e-07 
       4.00173645e-08       6.20126923e-08       3.78535901e-07 
       2.86491975e-08       6.20126919e-08       3.77426891e-07 
      -4.00282585e-08       6.31216967e-08       3.77426875e-07 
      -2.86600916e-08       6.31216972e-08       3.78535885e-07 
       4.22413577e-08       7.01150215e-08       4.27725111e-07 
       3.02414049e-08       7.01150210e-08       4.26547544e-07 
      -4.22528004e-08       7.12925821e-08       4.26547526e-07 
      -3.02528476e-08       7.12925826e-08       4.27725093e-07 
       4.22413577e-08       7.01150215e-08       4.27725111e-07 
       3.02414049e-08       7.01150210e-08       4.26547544e-07 
      -4.22528004e-08       7.12925821e-08       4.26547526e-07 
      -3.02528476e-08       7.12925826e-08       4.27725093e-07 
       4.44124528e-08       7.86520389e-08       4.79540363e-07 
       3.17957392e-08       7.86520383e-08       4.78294239e-07 
      -4.44244459e-08       7.98981557e-08       4.78294218e-07 
      -3.18077322e-08       7.98981562e-08       4.79540342e-07 
       4.44124528e-08       7.86520389e-08       4.79540363e-07 
       3.17957392e-08       7.86520383e-08       4.78294239e-07 
      -4.44244459e-08       7.98981557e-08       4.78294218e-07 
      -3.18077322e-08       7.98981562e-08       4.79540342e-07 
       4.65306498e-08       8.76132823e-08       5.33918452e-07 
       3.33122001e-08       8.76132817e-08       5.32603771e-07 
      -4.65431962e-08       8.89279554e-08       5.32603749e-07 
      -3.33247467e-08       8.89279560e-08       5.33918430e-07 
       4.65306498e-08       8.76132823e-08       5.33918452e-07 
       3.33122001e-08       8.76132817e-08       5.32603771e-07 
      -4.65431962e-08       8.89279554e-08       5.32603749e-07 
      -3.33247467e-08       8.89279560e-08       5.33918430e-07 
       4.85959484e-08       9.69882899e-08       5.90796175e-07 
       3.47907880e-08       9.69882892e-08       5.89412937e-07 
      -4.86090501e-08       9.83715191e-08       5.89412913e-07 
      -3.48038900e-08       9.83715197e-08       5.90796151e-07 
       4.85959484e-08       9.69882899e-08       5.90796175e-07 
       3.47907880e-08       9.69882892e-08       5.89412937e-07 
      -4.86090501e-08       9.83715191e-08       5.89412913e-07 
      -3.48038900e-08       9.83715197e-08       5.90796151e-07 
       5.06083486e-08       1.06766599e-07       6.50110330e-07 
       3.62315022e-08       1.06766599e-07       6.48658535e-07 
      -5.06220088e-08       1.08218385e-07       6.48658509e-07 
      -3.62451626e-08       1.08218385e-07       6.50110303e-07 
       5.06083486e-08       1.06766599e-07       6.50110330e-07 
       3.62315027e-08       1.06766599e-07       6.48658535e-07 
      -5.06220088e-08       1.08218385e-07       6.48658509e-07 
      -3.62451626e-08       1.08218385e-07       6.50110303e-07 
       5.25710648e-08       1.16941987e-07       7.11794918e-07 
       3.76366738e-08       1.16941986e-07       7.10282632e-07 
      -5.25850807e-08       1.18454263e-07       7.10282604e-07 
      -3.76506901e-08       1.18454263e-07       7.11794890e-07 
       5.25710648e-08       1.16941987e-07       7.11794918e-07 
       3.76366738e-08       1.16941986e-07       7.10282632e-07 
      -5.25850807e-08       1.18454263e-07       7.10282604e-07 
      -3.76506901e-08       1.18454263e-07       7.11794890e-07 
       5.44871055e-08       1.27500983e-07       7.75796966e-07 
       3.90084272e-08       1.27500982e-07       7.74224189e-07 
      -5.45014802e-08       1.29073749e-07       7.74224158e-07 
      -3.90228023e-08       1.29073750e-07       7.75796936e-07 
       5.44871055e-08       1.27500983e-07       7.75796966e-07 
       3.90084272e-08       1.27500982e-07       7.74224189e-07 
      -5.45014802e-08       1.29073749e-07       7.74224158e-07 
      -3.90228023e-08       1.29073750e-07       7.75796936e-07 
       5.63564710e-08       1.38434357e-07       8.42060706e-07 
       4.03467628e-08       1.38434356e-07       8.40427438e-07 
      -5.63712073e-08       1.40067614e-07       8.40427405e-07 
      -4.03614995e-08       1.40067614e-07       8.42060674e-07 
       5.63564710e-08       1.38434357e-07       8.42060706e-07 
       4.03467628e-08       1.38434356e-07       8.40427438e-07 
      -5.63712073e-08       1.40067614e-07       8.40427405e-07 
      -4.03614995e-08       1.40067614e-07       8.42060674e-07 
       5.81791606e-08       1.49732877e-07       9.10530370e-07 
       4.16516799e-08       1.49732876e-07       9.08836611e-07 
      -5.81942627e-08       1.51426624e-07       9.08836576e-07 
      -4.16667820e-08       1.51426625e-07       9.10530336e-07 
       5.81791606e-08       1.49732877e-07       9.10530370e-07 
       4.16516799e-08       1.49732876e-07       9.08836611e-07 
      -5.81942627e-08       1.51426624e-07       9.08836576e-07 
      -4.16667820e-08       1.51426625e-07       9.10530336e-07 
       5.99551750e-08       1.61387312e-07       9.81150191e-07 
       4.29231788e-08       1.61387311e-07       9.79395940e-07 
      -5.99706458e-08       1.63141549e-07       9.79395904e-07 
      -4.29386500e-08       1.63141550e-07       9.81150154e-07 
       5.99551750e-08       1.61387312e-07       9.81150191e-07 
       4.29231788e-08       1.61387311e-07       9.79395940e-07 
      -5.99706458e-08       1.63141549e-07       9.79395904e-07 
      -4.29386500e-08       1.63141550e-07       9.81150154e-07 
       6.16845139e-08       1.73388431e-07       1.05386440e-06 
       4.41612595e-08       1.73388429e-07       1.05204966e-06 
      -6.17003568e-08       1.75203159e-07       1.05204962e-06 
      -4.41771024e-08       1.75203160e-07       1.05386436e-06 
       6.16845139e-08       1.73388431e-07       1.05386440e-06 
       4.41612595e-08       1.73388429e-07       1.05204966e-06 
      -6.17003568e-08       1.75203159e-07       1.05204962e-06 
      -4.41771024e-08       1.75203160e-07       1.05386436e-06 
       6.33671773e-08       1.85727002e-07       1.12861723e-06 
       4.53659226e-08       1.85727001e-07       1.12674200e-06 
      -6.33833950e-08       1.87602221e-07       1.12674196e-06 
      -4.53821407e-08       1.87602222e-07       1.12861719e-06 
       6.33671773e-08       1.85727002e-07       1.12861723e-06 
       4.53659226e-08       1.85727001e-07       1.12674200e-06 
      -6.33833950e-08       1.87602221e-07       1.12674196e-06 
      -4.53821407e-08       1.87602222e-07       1.12861719e-06 
       6.50031660e-08       1.98393795e-07       1.20535292e-06 
       4.65371679e-08       1.98393794e-07       1.20341719e-06 
      -6.50197607e-08       2.00329504e-07       1.20341715e-06 
      -4.65537626e-08       2.00329505e-07       1.20535287e-06 
       6.50031660e-08       1.98393795e-07       1.20535292e-06 
       4.65371679e-08       1.98393794e-07       1.20341719e-06 
      -6.50197607e-08       2.00329504e-07       1.20341715e-06 
      -4.65537626e-08       2.00329505e-07       1.20535287e-06 
       6.65924791e-08       2.11379578e-07       1.28401568e-06 
       4.76749951e-08       2.11379576e-07       1.28201947e-06 
      -6.66094544e-08       2.13375777e-07       1.28201942e-06 
      -4.76919704e-08       2.13375778e-07       1.28401564e-06 
       6.65924791e-08       2.11379578e-07       1.28401568e-06 
       4.76749951e-08       2.11379576e-07       1.28201947e-06 
      -6.66094544e-08       2.13375777e-07       1.28201942e-06 
      -4.76919704e-08       2.13375778e-07       1.28401564e-06 
       6.81351171e-08       2.24675119e-07       1.36454977e-06 
       4.87794045e-08       2.24675118e-07       1.36249306e-06 
      -6.81524757e-08       2.26731809e-07       1.36249302e-06 
      -4.87967631e-08       2.26731811e-07       1.36454972e-06 
       6.81351171e-08       2.24675119e-07       1.36454977e-06 
       4.87794045e-08       2.24675118e-07       1.36249306e-06 
      -6.81524757e-08       2.26731809e-07       1.36249302e-06 
      -4.87967631e-08       2.26731811e-07       1.36454972e-06 
       6.96342601e-08       2.38275427e-07       1.44689662e-06 
       4.98526922e-08       2.38275426e-07       1.44478748e-06 
      -6.96518669e-08       2.40384542e-07       1.44478743e-06 
      -4.98702994e-08       2.40384543e-07       1.44689657e-06 
       6.96342601e-08       2.38275427e-07       1.44689662e-06 
       4.98526922e-08       2.38275426e-07       1.44478748e-06 
      -6.96518669e-08       2.40384542e-07       1.44478743e-06 
      -4.98702994e-08       2.40384543e-07       1.44689657e-06 
       7.10929506e-08       2.52168262e-07       1.53101068e-06 
       5.08970177e-08       2.52168260e-07       1.52884912e-06 
      -7.11108097e-08       2.54329801e-07       1.52884907e-06 
      -5.09148763e-08       2.54329803e-07       1.53101063e-06 
       7.10929506e-08       2.52168262e-07       1.53101068e-06 
       5.08970177e-08       2.52168260e-07       1.52884912e-06 
      -7.11108097e-08       2.54329801e-07       1.52884907e-06 
      -5.09148763e-08       2.54329803e-07       1.53101063e-06 
       7.25111899e-08       2.66345623e-07       1.61684362e-06 
       5.19123811e-08       2.66345622e-07       1.61462964e-06 
      -7.25293026e-08       2.68559588e-07       1.61462959e-06 
      -5.19304937e-08       2.68559589e-07       1.61684357e-06 
       7.25111899e-08       2.66345623e-07       1.61684362e-06 
       5.19123811e-08       2.66345622e-07       1.61462964e-06 
      -7.25293026e-08       2.68559588e-07       1.61462959e-06 
      -5.19304937e-08       2.68559589e-07       1.61684357e-06 
       7.38889758e-08       2.80799511e-07       1.70434713e-06 
       5.28987809e-08       2.80799510e-07       1.70208072e-06 
      -7.39073469e-08       2.83065901e-07       1.70208066e-06 
      -5.29171520e-08       2.83065902e-07       1.70434707e-06 
       7.38889758e-08       2.80799511e-07       1.70434713e-06 
       5.28987809e-08       2.80799510e-07       1.70208072e-06 
      -7.39073469e-08       2.83065901e-07       1.70208066e-06 
      -5.29171520e-08       2.83065902e-07       1.70434707e-06 
       7.52263101e-08       2.95521926e-07       1.79347285e-06 
       5.38562190e-08       2.95521924e-07       1.79115401e-06 
      -7.52449418e-08       2.97840740e-07       1.79115396e-06 
      -5.38748508e-08       2.97840742e-07       1.79347279e-06 
       7.52263101e-08       2.95521926e-07       1.79347285e-06 
       5.38562190e-08       2.95521924e-07       1.79115401e-06 
      -7.52449418e-08       2.97840740e-07       1.79115396e-06 
      -5.38748508e-08       2.97840742e-07       1.79347279e-06 
       7.65231922e-08       3.10504866e-07       1.88417246e-06 
       5.47846946e-08       3.10504864e-07       1.88180120e-06 
      -7.65420878e-08       3.12876105e-07       1.88180114e-06 
      -5.48035901e-08       3.12876107e-07       1.88417240e-06 
       7.65231922e-08       3.10504866e-07       1.88417246e-06 
       5.47846946e-08       3.10504864e-07       1.88180120e-06 
      -7.65420878e-08       3.12876105e-07       1.88180114e-06 
      -5.48035901e-08       3.12876107e-07       1.88417240e-06 
       7.77796219e-08       3.25740331e-07       1.97639763e-06 
       5.56842075e-08       3.25740329e-07       1.97397395e-06 
      -7.77987847e-08       3.28163995e-07       1.97397388e-06 
      -5.57033699e-08       3.28163997e-07       1.97639757e-06 
       7.77796219e-08       3.25740331e-07       1.97639763e-06 
       5.56842075e-08       3.25740329e-07       1.97397395e-06 
      -7.77987847e-08       3.28163995e-07       1.97397388e-06 
      -5.57033699e-08       3.28163997e-07       1.97639757e-06 
       7.89956003e-08       3.41220321e-07       2.07010003e-06 
       5.65547582e-08       3.41220319e-07       2.06762392e-06 
      -7.90150314e-08       3.43696410e-07       2.06762385e-06 
      -5.65741898e-08       3.43696412e-07       2.07009997e-06 
       7.89956003e-08       3.41220321e-07       2.07010003e-06 
       5.65547582e-08       3.41220319e-07       2.06762392e-06 