# vtk DataFile Version 2.0
./output/onsasExample_nonLinearCantileverBlade_staitc3D_pitch numElements=10/onsasExample_nonLinearCantileverBlade_staitc3D_pitch numElements=10_0028.vtk
ASCII
DATASET UNSTRUCTURED_GRID

POINTS 800 float
      -1.417779e-24      -7.180703e-02      -7.180703e-02 
      -3.574935e-25       7.180703e-02      -7.180703e-02 
       1.417779e-24       7.180703e-02       7.180703e-02 
       3.574935e-25      -7.180703e-02       7.180703e-02 
       1.000000e-01      -7.180703e-02      -7.180703e-02 
       1.000000e-01       7.180703e-02      -7.180703e-02 
       1.000000e-01       7.180703e-02       7.180703e-02 
       1.000000e-01      -7.180703e-02       7.180703e-02 
       1.000000e-01      -7.180703e-02      -7.180703e-02 
       1.000000e-01       7.180703e-02      -7.180703e-02 
       1.000000e-01       7.180703e-02       7.180703e-02 
       1.000000e-01      -7.180703e-02       7.180703e-02 
       2.000000e-01      -7.180703e-02      -7.180703e-02 
       2.000000e-01       7.180704e-02      -7.180704e-02 
       2.000000e-01       7.180704e-02       7.180703e-02 
       2.000000e-01      -7.180703e-02       7.180703e-02 
       2.000000e-01      -7.180703e-02      -7.180703e-02 
       2.000000e-01       7.180704e-02      -7.180704e-02 
       2.000000e-01       7.180704e-02       7.180703e-02 
       2.000000e-01      -7.180703e-02       7.180703e-02 
       3.000000e-01      -7.180703e-02      -7.180704e-02 
       3.000000e-01       7.180704e-02      -7.180704e-02 
       3.000000e-01       7.180704e-02       7.180703e-02 
       3.000000e-01      -7.180703e-02       7.180703e-02 
       3.000000e-01      -7.180703e-02      -7.180704e-02 
       3.000000e-01       7.180704e-02      -7.180704e-02 
       3.000000e-01       7.180704e-02       7.180703e-02 
       3.000000e-01      -7.180703e-02       7.180703e-02 
       4.000000e-01      -7.180702e-02      -7.180704e-02 
       4.000000e-01       7.180704e-02      -7.180704e-02 
       4.000000e-01       7.180704e-02       7.180702e-02 
       4.000000e-01      -7.180702e-02       7.180703e-02 
       4.000000e-01      -7.180702e-02      -7.180704e-02 
       4.000000e-01       7.180704e-02      -7.180704e-02 
       4.000000e-01       7.180704e-02       7.180702e-02 
       4.000000e-01      -7.180702e-02       7.180703e-02 
       5.000000e-01      -7.180702e-02      -7.180705e-02 
       5.000000e-01       7.180705e-02      -7.180705e-02 
       5.000000e-01       7.180705e-02       7.180702e-02 
       5.000000e-01      -7.180702e-02       7.180702e-02 
       5.000000e-01      -7.180702e-02      -7.180705e-02 
       5.000000e-01       7.180705e-02      -7.180705e-02 
       5.000000e-01       7.180705e-02       7.180702e-02 
       5.000000e-01      -7.180702e-02       7.180702e-02 
       6.000000e-01      -7.180701e-02      -7.180705e-02 
       6.000000e-01       7.180706e-02      -7.180705e-02 
       6.000000e-01       7.180706e-02       7.180701e-02 
       6.000000e-01      -7.180701e-02       7.180702e-02 
       6.000000e-01      -7.180701e-02      -7.180705e-02 
       6.000000e-01       7.180706e-02      -7.180705e-02 
       6.000000e-01       7.180706e-02       7.180701e-02 
       6.000000e-01      -7.180701e-02       7.180702e-02 
       7.000000e-01      -7.180700e-02      -7.180706e-02 
       7.000000e-01       7.180706e-02      -7.180706e-02 
       7.000000e-01       7.180707e-02       7.180701e-02 
       7.000000e-01      -7.180700e-02       7.180701e-02 
       7.000000e-01      -7.180700e-02      -7.180706e-02 
       7.000000e-01       7.180706e-02      -7.180706e-02 
       7.000000e-01       7.180707e-02       7.180701e-02 
       7.000000e-01      -7.180700e-02       7.180701e-02 
       8.000000e-01      -7.180699e-02      -7.180706e-02 
       8.000000e-01       7.180707e-02      -7.180707e-02 
       8.000000e-01       7.180708e-02       7.180700e-02 
       8.000000e-01      -7.180699e-02       7.180700e-02 
       8.000000e-01      -7.180699e-02      -7.180706e-02 
       8.000000e-01       7.180707e-02      -7.180707e-02 
       8.000000e-01       7.180708e-02       7.180700e-02 
       8.000000e-01      -7.180699e-02       7.180700e-02 
       9.000000e-01      -7.180698e-02      -7.180707e-02 
       9.000000e-01       7.180708e-02      -7.180707e-02 
       9.000000e-01       7.180709e-02       7.180699e-02 
       9.000000e-01      -7.180698e-02       7.180699e-02 
       9.000000e-01      -7.180698e-02      -7.180707e-02 
       9.000000e-01       7.180708e-02      -7.180707e-02 
       9.000000e-01       7.180709e-02       7.180699e-02 
       9.000000e-01      -7.180698e-02       7.180699e-02 
       1.000000e+00      -7.180697e-02      -7.180708e-02 
       1.000000e+00       7.180710e-02      -7.180708e-02 
       1.000000e+00       7.180710e-02       7.180698e-02 
       1.000000e+00      -7.180697e-02       7.180699e-02 
       1.000000e+00      -7.180697e-02      -7.180708e-02 
       1.000000e+00       7.180710e-02      -7.180708e-02 
       1.000000e+00       7.180710e-02       7.180698e-02 
       1.000000e+00      -7.180697e-02       7.180699e-02 
       1.100000e+00      -7.180696e-02      -7.180709e-02 
       1.100000e+00       7.180711e-02      -7.180709e-02 
       1.100000e+00       7.180711e-02       7.180697e-02 
       1.100000e+00      -7.180695e-02       7.180698e-02 
       1.100000e+00      -7.180696e-02      -7.180709e-02 
       1.100000e+00       7.180711e-02      -7.180709e-02 
       1.100000e+00       7.180711e-02       7.180697e-02 
       1.100000e+00      -7.180695e-02       7.180698e-02 
       1.200000e+00      -7.180694e-02      -7.180710e-02 
       1.200000e+00       7.180712e-02      -7.180710e-02 
       1.200000e+00       7.180713e-02       7.180696e-02 
       1.200000e+00      -7.180694e-02       7.180696e-02 
       1.200000e+00      -7.180694e-02      -7.180710e-02 
       1.200000e+00       7.180712e-02      -7.180710e-02 
       1.200000e+00       7.180713e-02       7.180696e-02 
       1.200000e+00      -7.180694e-02       7.180696e-02 
       1.300000e+00      -7.180693e-02      -7.180711e-02 
       1.300000e+00       7.180714e-02      -7.180711e-02 
       1.300000e+00       7.180714e-02       7.180695e-02 
       1.300000e+00      -7.180692e-02       7.180695e-02 
       1.300000e+00      -7.180693e-02      -7.180711e-02 
       1.300000e+00       7.180714e-02      -7.180711e-02 
       1.300000e+00       7.180714e-02       7.180695e-02 
       1.300000e+00      -7.180692e-02       7.180695e-02 
       1.400000e+00      -7.180691e-02      -7.180712e-02 
       1.400000e+00       7.180716e-02      -7.180713e-02 
       1.400000e+00       7.180716e-02       7.180694e-02 
       1.400000e+00      -7.180691e-02       7.180694e-02 
       1.400000e+00      -7.180691e-02      -7.180712e-02 
       1.400000e+00       7.180716e-02      -7.180713e-02 
       1.400000e+00       7.180716e-02       7.180694e-02 
       1.400000e+00      -7.180691e-02       7.180694e-02 
       1.500000e+00      -7.180689e-02      -7.180714e-02 
       1.500000e+00       7.180717e-02      -7.180714e-02 
       1.500000e+00       7.180718e-02       7.180693e-02 
       1.500000e+00      -7.180689e-02       7.180693e-02 
       1.500000e+00      -7.180689e-02      -7.180714e-02 
       1.500000e+00       7.180717e-02      -7.180714e-02 
       1.500000e+00       7.180718e-02       7.180693e-02 
       1.500000e+00      -7.180689e-02       7.180693e-02 
       1.600000e+00      -7.180688e-02      -7.180715e-02 
       1.600000e+00       7.180719e-02      -7.180715e-02 
       1.600000e+00       7.180719e-02       7.180691e-02 
       1.600000e+00      -7.180687e-02       7.180691e-02 
       1.600000e+00      -7.180688e-02      -7.180715e-02 
       1.600000e+00       7.180719e-02      -7.180715e-02 
       1.600000e+00       7.180719e-02       7.180691e-02 
       1.600000e+00      -7.180687e-02       7.180691e-02 
       1.700000e+00      -7.180686e-02      -7.180717e-02 
       1.700000e+00       7.180721e-02      -7.180717e-02 
       1.700000e+00       7.180721e-02       7.180690e-02 
       1.700000e+00      -7.180685e-02       7.180690e-02 
       1.700000e+00      -7.180686e-02      -7.180717e-02 
       1.700000e+00       7.180721e-02      -7.180717e-02 
       1.700000e+00       7.180721e-02       7.180690e-02 
       1.700000e+00      -7.180685e-02       7.180690e-02 
       1.800000e+00      -7.180684e-02      -7.180718e-02 
       1.800000e+00       7.180723e-02      -7.180718e-02 
       1.800000e+00       7.180723e-02       7.180688e-02 
       1.800000e+00      -7.180683e-02       7.180689e-02 
       1.800000e+00      -7.180684e-02      -7.180718e-02 
       1.800000e+00       7.180723e-02      -7.180718e-02 
       1.800000e+00       7.180723e-02       7.180688e-02 
       1.800000e+00      -7.180683e-02       7.180689e-02 
       1.900000e+00      -7.180682e-02      -7.180720e-02 
       1.900000e+00       7.180725e-02      -7.180720e-02 
       1.900000e+00       7.180725e-02       7.180687e-02 
       1.900000e+00      -7.180681e-02       7.180687e-02 
       1.900000e+00      -7.180682e-02      -7.180720e-02 
       1.900000e+00       7.180725e-02      -7.180720e-02 
       1.900000e+00       7.180725e-02       7.180687e-02 
       1.900000e+00      -7.180681e-02       7.180687e-02 
       2.000000e+00      -7.180679e-02      -7.180721e-02 
       2.000000e+00       7.180727e-02      -7.180722e-02 
       2.000000e+00       7.180728e-02       7.180685e-02 
       2.000000e+00      -7.180679e-02       7.180685e-02 
       2.000000e+00      -7.180679e-02      -7.180721e-02 
       2.000000e+00       7.180727e-02      -7.180722e-02 
       2.000000e+00       7.180728e-02       7.180685e-02 
       2.000000e+00      -7.180679e-02       7.180685e-02 
       2.100000e+00      -7.180677e-02      -7.180723e-02 
[...]
POINT_DATA       800 
VECTORS Displacements float
      -1.41777881e-24       1.38777878e-17      -1.38777878e-17 
      -3.57493546e-25       0.00000000e+00      -1.38777878e-17 
       1.41777881e-24      -1.38777878e-17       1.38777878e-17 
       3.57493546e-25       0.00000000e+00       1.38777878e-17 
       2.41238585e-10       5.92809274e-10      -4.23813318e-10 
      -1.72285000e-09       5.92809246e-10      -6.10190246e-10 
      -2.42615747e-10       7.79186188e-10      -6.10190246e-10 
       1.72147281e-09       7.79186216e-10      -4.23813318e-10 
       2.41238585e-10       5.92809274e-10      -4.23813318e-10 
      -1.72285000e-09       5.92809246e-10      -6.10190246e-10 
      -2.42615747e-10       7.79186188e-10      -6.10190246e-10 
       1.72147281e-09       7.79186216e-10      -4.23813318e-10 
       4.77828527e-10       2.54009519e-09      -1.86842720e-09 
      -3.41260953e-09       2.54009515e-09      -2.24118105e-09 
      -4.80583129e-10       2.91284907e-09      -2.24118107e-09 
       3.40985490e-09       2.91284910e-09      -1.86842723e-09 
       4.77828527e-10       2.54009519e-09      -1.86842720e-09 
      -3.41260953e-09       2.54009515e-09      -2.24118105e-09 
      -4.80583129e-10       2.91284907e-09      -2.24118107e-09 
       3.40985490e-09       2.91284910e-09      -1.86842723e-09 
       7.09769798e-10       5.81557966e-09      -4.31403714e-09 
      -5.06927861e-09       5.81557952e-09      -4.87316788e-09 
      -7.13902104e-10       6.37471045e-09      -4.87316794e-09 
       5.06514625e-09       6.37471059e-09      -4.31403720e-09 
       7.09769798e-10       5.81557966e-09      -4.31403714e-09 
      -5.06927861e-09       5.81557952e-09      -4.87316788e-09 
      -7.13902104e-10       6.37471045e-09      -4.87316794e-09 
       5.06514625e-09       6.37471059e-09      -4.31403720e-09 
       9.37062428e-10       1.03929845e-08      -7.74083864e-09 
      -6.69285727e-09       1.03929843e-08      -8.48634625e-09 
      -9.42572742e-10       1.11384922e-08      -8.48634635e-09 
       6.68734695e-09       1.11384924e-08      -7.74083873e-09 
       9.37062428e-10       1.03929845e-08      -7.74083864e-09 
      -6.69285727e-09       1.03929843e-08      -8.48634625e-09 
      -9.42572742e-10       1.11384922e-08      -8.48634635e-09 
       6.68734695e-09       1.11384924e-08      -7.74083873e-09 
       1.15970644e-09       1.62460316e-08      -1.21290271e-08 
      -8.28334540e-09       1.62460313e-08      -1.30609116e-08 
      -1.16659499e-09       1.71779163e-08      -1.30609118e-08 
       8.27645685e-09       1.71779166e-08      -1.21290273e-08 
       1.15970644e-09       1.62460316e-08      -1.21290271e-08 
      -8.28334540e-09       1.62460313e-08      -1.30609116e-08 
      -1.16659499e-09       1.71779163e-08      -1.30609118e-08 
       8.27645685e-09       1.71779166e-08      -1.21290273e-08 
       1.37770173e-09       2.33484428e-08      -1.74587981e-08 
      -9.84074311e-09       2.33484424e-08      -1.85770594e-08 
      -1.38596878e-09       2.44667044e-08      -1.85770597e-08 
       9.83247606e-09       2.44667048e-08      -1.74587983e-08 
       1.37770173e-09       2.33484428e-08      -1.74587981e-08 
      -9.84074311e-09       2.33484424e-08      -1.85770594e-08 
      -1.38596878e-09       2.44667044e-08      -1.85770597e-08 
       9.83247606e-09       2.44667048e-08      -1.74587983e-08 
       1.59104852e-09       3.16739401e-08      -2.37103470e-08 
      -1.13650505e-08       3.16739395e-08      -2.50149852e-08 
      -1.60069435e-09       3.29785785e-08      -2.50149855e-08 
       1.13554045e-08       3.29785791e-08      -2.37103474e-08 
       1.59104852e-09       3.16739401e-08      -2.37103470e-08 
      -1.13650505e-08       3.16739395e-08      -2.50149852e-08 
      -1.60069435e-09       3.29785785e-08      -2.50149855e-08 
       1.13554045e-08       3.29785791e-08      -2.37103474e-08 
       1.79974680e-09       4.11962451e-08      -3.08638694e-08 
      -1.28562672e-08       4.11962443e-08      -3.23548844e-08 
      -1.81077142e-09       4.26872605e-08      -3.23548848e-08 
       1.28452423e-08       4.26872612e-08      -3.08638698e-08 
       1.79974680e-09       4.11962451e-08      -3.08638694e-08 
      -1.28562672e-08       4.11962443e-08      -3.23548844e-08 
      -1.81077142e-09       4.26872605e-08      -3.23548848e-08 
       1.28452423e-08       4.26872612e-08      -3.08638698e-08 
       2.00379613e-09       5.18890798e-08      -3.88995607e-08 
      -1.43143933e-08       5.18890789e-08      -4.05769525e-08 
      -2.01620032e-09       5.35664721e-08      -4.05769530e-08 
       1.43019894e-08       5.35664730e-08      -3.88995612e-08 
       2.00379613e-09       5.18890798e-08      -3.88995607e-08 
      -1.43143933e-08       5.18890789e-08      -4.05769525e-08 
      -2.01620032e-09       5.35664721e-08      -4.05769530e-08 
       1.43019894e-08       5.35664730e-08      -3.88995612e-08 
       2.20319718e-09       6.37261661e-08      -4.77976164e-08 
      -1.57394291e-08       6.37261650e-08      -4.96613850e-08 
      -2.21698038e-09       6.55899353e-08      -4.96613856e-08 
       1.57256459e-08       6.55899364e-08      -4.77976170e-08 
       2.20319696e-09       6.37261661e-08      -4.77976164e-08 
      -1.57394292e-08       6.37261650e-08      -4.96613849e-08 
      -2.21698049e-09       6.55899353e-08      -4.96613856e-08 
       1.57256457e-08       6.55899364e-08      -4.77976170e-08 
       2.39844100e-09       7.66914961e-08      -5.75483885e-08 
      -1.71328691e-08       7.66914947e-08      -5.95789155e-08 
      -2.41311016e-09       7.87220237e-08      -5.95789163e-08 
       1.71182000e-08       7.87220251e-08      -5.75483893e-08 
       2.39844100e-09       7.66914961e-08      -5.75483885e-08 
      -1.71328691e-08       7.66914947e-08      -5.95789155e-08 
      -2.41311016e-09       7.87220237e-08      -5.95789163e-08 
       1.71182000e-08       7.87220251e-08      -5.75483893e-08 
       2.58952548e-09       9.07512874e-08      -6.81240007e-08 
      -1.84967017e-08       9.07512858e-08      -7.03212861e-08 
      -2.60508082e-09       9.29485735e-08      -7.03212870e-08 
       1.84811466e-08       9.29485751e-08      -6.81240016e-08 
       2.58952548e-09       9.07512874e-08      -6.81240007e-08 
      -1.84967017e-08       9.07512858e-08      -7.03212861e-08 
      -2.60508082e-09       9.29485735e-08      -7.03212870e-08 
       1.84811466e-08       9.29485751e-08      -6.81240016e-08 
       2.77645040e-09       1.05882028e-07      -7.95067330e-08 
      -1.98309276e-08       1.05882026e-07      -8.18707768e-08 
      -2.79289258e-09       1.08246073e-07      -8.18707778e-08 
       1.98144854e-08       1.08246075e-07      -7.95067341e-08 
       2.77645040e-09       1.05882028e-07      -7.95067330e-08 
      -1.98309276e-08       1.05882026e-07      -8.18707768e-08 
      -2.79289258e-09       1.08246073e-07      -8.18707778e-08 
       1.98144854e-08       1.08246075e-07      -7.95067341e-08 
       2.95921598e-09       1.22060206e-07      -9.16788657e-08 
      -2.11355462e-08       1.22060204e-07      -9.42096678e-08 
      -2.97654545e-09       1.24591009e-07      -9.42096690e-08 
       2.11182167e-08       1.24591011e-07      -9.16788669e-08 
       2.95921598e-09       1.22060206e-07      -9.16788657e-08 
      -2.11355462e-08       1.22060204e-07      -9.42096678e-08 
      -2.97654545e-09       1.24591009e-07      -9.42096690e-08 
       2.11182167e-08       1.24591011e-07      -9.16788669e-08 
       3.13782178e-09       1.39262310e-07      -1.04622679e-07 
      -2.24105581e-08       1.39262307e-07      -1.07320239e-07 
      -3.15603943e-09       1.41959871e-07      -1.07320241e-07 
       2.23923400e-08       1.41959873e-07      -1.04622680e-07 
       3.13782178e-09       1.39262310e-07      -1.04622679e-07 
      -2.24105581e-08       1.39262307e-07      -1.07320239e-07 
      -3.15603943e-09       1.41959871e-07      -1.07320241e-07 
       2.23923400e-08       1.41959873e-07      -1.04622680e-07 
       3.31226824e-09       1.57464826e-07      -1.18320453e-07 
      -2.36559625e-08       1.57464824e-07      -1.21184772e-07 
      -3.33137473e-09       1.60329146e-07      -1.21184773e-07 
       2.36368560e-08       1.60329149e-07      -1.18320454e-07 
       3.31226824e-09       1.57464826e-07      -1.18320453e-07 
      -2.36559625e-08       1.57464824e-07      -1.21184772e-07 
      -3.33137473e-09       1.60329146e-07      -1.21184773e-07 
       2.36368560e-08       1.60329149e-07      -1.18320454e-07 
       3.48255536e-09       1.76644244e-07      -1.32754467e-07 
      -2.48717600e-08       1.76644241e-07      -1.35785545e-07 
      -3.50255092e-09       1.79675323e-07      -1.35785546e-07 
       2.48517644e-08       1.79675326e-07      -1.32754469e-07 
       3.48255536e-09       1.76644244e-07      -1.32754467e-07 
      -2.48717600e-08       1.76644241e-07      -1.35785545e-07 
      -3.50255092e-09       1.79675323e-07      -1.35785546e-07 
       2.48517644e-08       1.79675326e-07      -1.32754469e-07 
       3.64868291e-09       1.96777052e-07      -1.47907003e-07 
      -2.60579502e-08       1.96777048e-07      -1.51104839e-07 
      -3.66956798e-09       1.99974889e-07      -1.51104840e-07 
       2.60370649e-08       1.99974892e-07      -1.47907005e-07 
       3.64868291e-09       1.96777052e-07      -1.47907003e-07 
      -2.60579502e-08       1.96777048e-07      -1.51104839e-07 
      -3.66956798e-09       1.99974889e-07      -1.51104840e-07 
       2.60370649e-08       1.99974892e-07      -1.47907005e-07 
       3.81065091e-09       2.17839736e-07      -1.63760340e-07 
      -2.72145333e-08       2.17839733e-07      -1.67124934e-07 
      -3.83242615e-09       2.21204332e-07      -1.67124936e-07 
       2.71927580e-08       2.21204335e-07      -1.63760342e-07 
       3.81065091e-09       2.17839736e-07      -1.63760340e-07 
      -2.72145333e-08       2.17839733e-07      -1.67124934e-07 
      -3.83242615e-09       2.21204332e-07      -1.67124936e-07 
       2.71927580e-08       2.21204335e-07      -1.63760342e-07 
       3.96845978e-09       2.39808786e-07      -1.80296758e-07 
      -2.83415096e-08       2.39808782e-07      -1.83828110e-07 
      -3.99112565e-09       2.43340140e-07      -1.83828112e-07 
       2.83188437e-08       2.43340144e-07      -1.80296760e-07 
       3.96845978e-09       2.39808786e-07      -1.80296758e-07 
      -2.83415094e-08       2.39808782e-07      -1.83828110e-07 
      -3.99112543e-09       2.43340140e-07      -1.83828112e-07 
       2.83188437e-08       2.43340144e-07      -1.80296760e-07 
       4.12252721e-09       2.62670959e-07      -1.97508695e-07 
      -2.94404465e-08       2.62670955e-07      -2.01187187e-07 
      -4.14573709e-09       2.66349453e-07      -2.01187189e-07 
       2.94172366e-08       2.66349457e-07      -1.97508697e-07 
       4.12252721e-09       2.62670959e-07      -1.97508695e-07 
      -2.94404465e-08       2.62670955e-07      -2.01187187e-07 
      -4.14573709e-09       2.66349453e-07      -2.01187189e-07 
       2.94172366e-08       2.66349457e-07      -1.97508697e-07 
       4.27292424e-09       2.86395240e-07      -2.15370357e-07 
      -3.05132595e-08       2.86395236e-07      -2.19195989e-07 
      -4.29667901e-09       2.90220874e-07      -2.19195992e-07 
       3.04895051e-08       2.90220878e-07      -2.15370360e-07 
       4.27292424e-09       2.86395240e-07      -2.15370357e-07 
      -3.05132595e-08       2.86395236e-07      -2.19195989e-07 
      -4.29667901e-09       2.90220874e-07      -2.19195992e-07 
       3.04895051e-08       2.90220878e-07      -2.15370360e-07 
       4.41965176e-09       3.10960882e-07      -2.33866111e-07 
      -3.15599484e-08       3.10960877e-07      -2.37838883e-07 
      -4.44395098e-09       3.14933656e-07      -2.37838886e-07 
       3.15356496e-08       3.14933660e-07      -2.33866114e-07 
       4.41965176e-09       3.10960882e-07      -2.33866111e-07 
      -3.15599484e-08       3.10960877e-07      -2.37838883e-07 
      -4.44395098e-09       3.14933656e-07      -2.37838886e-07 
       3.15356496e-08       3.14933660e-07      -2.33866114e-07 
       4.56270888e-09       3.36347139e-07      -2.52980322e-07 
      -3.25805138e-08       3.36347135e-07      -2.57100233e-07 
      -4.58755389e-09       3.40467053e-07      -2.57100236e-07 
       3.25556688e-08       3.40467058e-07      -2.52980324e-07 
       4.56270888e-09       3.36347139e-07      -2.52980322e-07 
      -3.25805138e-08       3.36347135e-07      -2.57100233e-07 
      -4.58755389e-09       3.40467053e-07      -2.57100236e-07 
       3.25556688e-08       3.40467058e-07      -2.52980324e-07 
       4.70209516e-09       3.62533267e-07      -2.72697353e-07 
      -3.35749557e-08       3.62533261e-07      -2.76964404e-07 
      -4.72748685e-09       3.66800320e-07      -2.76964407e-07 
       3.35495640e-08       3.66800326e-07      -2.72697356e-07 
       4.70209516e-09       3.62533267e-07      -2.72697353e-07 
      -3.35749557e-08       3.62533261e-07      -2.76964404e-07 
      -4.72748685e-09       3.66800320e-07      -2.76964407e-07 
       3.35495640e-08       3.66800326e-07      -2.72697356e-07 
       4.83781148e-09       3.89498518e-07      -2.93001569e-07 
      -3.45432736e-08       3.89498512e-07      -2.97415760e-07 
      -4.86375074e-09       3.93912711e-07      -2.97415764e-07 
       3.45173343e-08       3.93912717e-07      -2.93001573e-07 
       4.83781148e-09       3.89498518e-07      -2.93001569e-07 
      -3.45432736e-08       3.89498512e-07      -2.97415760e-07 
      -4.86375074e-09       3.93912711e-07      -2.97415764e-07 
       3.45173343e-08       3.93912717e-07      -2.93001573e-07 
       4.96985741e-09       4.17222146e-07      -3.13877337e-07 
      -3.54854679e-08       4.17222141e-07      -3.18438668e-07 
      -4.99634512e-09       4.21783480e-07      -3.18438671e-07 
       3.54589806e-08       4.21783486e-07      -3.13877340e-07 
       4.96985741e-09       4.17222146e-07      -3.13877337e-07 
      -3.54854679e-08       4.17222141e-07      -3.18438668e-07 
      -4.99634512e-09       4.21783480e-07      -3.18438671e-07 
       3.54589806e-08       4.21783486e-07      -3.13877340e-07 
       5.09823428e-09       4.45683407e-07      -3.35309020e-07 
      -3.64015378e-08       4.45683401e-07      -3.40017491e-07 
      -5.12526910e-09       4.50391881e-07      -3.40017494e-07 
       3.63745030e-08       4.50391887e-07      -3.35309023e-07 
       5.09823428e-09       4.45683407e-07      -3.35309020e-07 
      -3.64015378e-08       4.45683401e-07      -3.40017491e-07 
      -5.12526910e-09       4.50391881e-07      -3.40017494e-07 
       3.63745030e-08       4.50391887e-07      -3.35309023e-07 
       5.22293986e-09       4.74861554e-07      -3.57280983e-07 
      -3.72914841e-08       4.74861547e-07      -3.62136594e-07 
      -5.25052402e-09       4.79717167e-07      -3.62136598e-07 
       3.72639000e-08       4.79717174e-07      -3.57280987e-07 
       5.22293986e-09       4.74861554e-07      -3.57280983e-07 
      -3.72914841e-08       4.74861547e-07      -3.62136594e-07 
      -5.25052402e-09       4.79717167e-07      -3.62136598e-07 
       3.72639000e-08       4.79717174e-07      -3.57280987e-07 
       5.34397504e-09       5.04735840e-07      -3.79777592e-07 
      -3.81553069e-08       5.04735834e-07      -3.84780342e-07 
      -5.37210987e-09       5.09738594e-07      -3.84780346e-07 
       3.81271725e-08       5.09738601e-07      -3.79777596e-07 
       5.34397548e-09       5.04735840e-07      -3.79777592e-07 
      -3.81553069e-08       5.04735834e-07      -3.84780342e-07 
      -5.37210942e-09       5.09738594e-07      -3.84780346e-07 
       3.81271730e-08       5.09738601e-07      -3.79777596e-07 
       5.46170220e-09       5.35295792e-07      -4.02793368e-07 
      -3.89946306e-08       5.35295785e-07      -4.07923639e-07 
      -5.49015322e-09       5.40426067e-07      -4.07923643e-07 
       3.89661792e-08       5.40426074e-07      -4.02793372e-07 
       5.46170220e-09       5.35295792e-07      -4.02793368e-07 
      -3.89946306e-08       5.35295785e-07      -4.07923639e-07 
      -5.49015322e-09       5.40426067e-07      -4.07923643e-07 
       3.89661792e-08       5.40426074e-07      -4.02793372e-07 
       5.57624791e-09       5.66513158e-07      -4.26304603e-07 
      -3.98113138e-08       5.66513150e-07      -4.31562396e-07 
      -5.60501734e-09       5.71770954e-07      -4.31562400e-07 
       3.97825444e-08       5.71770961e-07      -4.26304607e-07 
       5.57624791e-09       5.66513158e-07      -4.26304603e-07 
      -3.98113138e-08       5.66513150e-07      -4.31562396e-07 
      -5.60501734e-09       5.71770954e-07      -4.31562400e-07 
       3.97825444e-08       5.71770961e-07      -4.26304607e-07 
       5.68761305e-09       5.98369958e-07      -4.50297747e-07 
      -4.06053560e-08       5.98369951e-07      -4.55683061e-07 
      -5.71670000e-09       6.03755276e-07      -4.55683066e-07 
       4.05762690e-08       6.03755283e-07      -4.50297752e-07 
       5.68761305e-09       5.98369958e-07      -4.50297747e-07 
      -4.06053560e-08       5.98369951e-07      -4.55683061e-07 
      -5.71670000e-09       6.03755276e-07      -4.55683066e-07 
       4.05762690e-08       6.03755283e-07      -4.50297752e-07 
       5.79579718e-09       6.30848214e-07      -4.74759251e-07 
      -4.13767580e-08       6.30848206e-07      -4.80272086e-07 
      -5.82520343e-09       6.36361053e-07      -4.80272090e-07 
       4.13473518e-08       6.36361061e-07      -4.74759255e-07 
       5.79579718e-09       6.30848214e-07      -4.74759251e-07 
      -4.13767580e-08       6.30848206e-07      -4.80272086e-07 
      -5.82520343e-09       6.36361053e-07      -4.80272090e-07 
       4.13473518e-08       6.36361061e-07      -4.74759255e-07 
       5.90079985e-09       6.63929944e-07      -4.99675562e-07 
      -4.21255195e-08       6.63929936e-07      -5.05315919e-07 
      -5.93052629e-09       6.69570305e-07      -5.05315923e-07 
       4.20957931e-08       6.69570313e-07      -4.99675567e-07 
       5.90079985e-09       6.63929944e-07      -4.99675562e-07 
      -4.21255195e-08       6.63929936e-07      -5.05315919e-07 
      -5.93052629e-09       6.69570305e-07      -5.05315923e-07 
       4.20957931e-08       6.69570313e-07      -4.99675567e-07 
       6.00262196e-09       6.97597170e-07      -5.25033131e-07 
      -4.28516405e-08       6.97597162e-07      -5.30801009e-07 
      -6.03266903e-09       7.03365052e-07      -5.30801014e-07 
       4.28215934e-08       7.03365060e-07      -5.25033136e-07 
       6.00262196e-09       6.97597170e-07      -5.25033131e-07 
      -4.28516405e-08       6.97597162e-07      -5.30801009e-07 
      -6.03266903e-09       7.03365052e-07      -5.30801014e-07 
       4.28215934e-08       7.03365060e-07      -5.25033136e-07 
       6.10126349e-09       7.31831911e-07      -5.50818408e-07 
      -4.35551204e-08       7.31831903e-07      -5.56713807e-07 
      -6.13163165e-09       7.37727315e-07      -5.56713812e-07 
       4.35247522e-08       7.37727323e-07      -5.50818413e-07 
       6.10126349e-09       7.31831911e-07      -5.50818408e-07 
      -4.35551204e-08       7.31831903e-07      -5.56713807e-07 
      -6.13163165e-09       7.37727315e-07      -5.56713812e-07 
       4.35247522e-08       7.37727323e-07      -5.50818413e-07 
       6.19672402e-09       7.66616189e-07      -5.77017842e-07 
      -4.42359598e-08       7.66616180e-07      -5.83040762e-07 
      -6.22741325e-09       7.72639113e-07      -5.83040767e-07 
       4.42052706e-08       7.72639122e-07      -5.77017847e-07 
       6.19672402e-09       7.66616189e-07      -5.77017842e-07 
      -4.42359598e-08       7.66616180e-07      -5.83040762e-07 