# vtk DataFile Version 2.0
./output/onsasExample_nonLinearCantileverBlade_staitc3D_pitch numElements=10/onsasExample_nonLinearCantileverBlade_staitc3D_pitch numElements=10_0006.vtk
ASCII
DATASET UNSTRUCTURED_GRID

POINTS 800 float
       8.572689e-26      -7.180703e-02      -7.180703e-02 
       1.865775e-25       7.180703e-02      -7.180703e-02 
      -8.572689e-26       7.180703e-02       7.180703e-02 
      -1.865775e-25      -7.180703e-02       7.180703e-02 
       1.000000e-01      -7.180703e-02      -7.180703e-02 
       1.000000e-01       7.180703e-02      -7.180703e-02 
       1.000000e-01       7.180703e-02       7.180703e-02 
       1.000000e-01      -7.180703e-02       7.180703e-02 
       1.000000e-01      -7.180703e-02      -7.180703e-02 
       1.000000e-01       7.180703e-02      -7.180703e-02 
       1.000000e-01       7.180703e-02       7.180703e-02 
       1.000000e-01      -7.180703e-02       7.180703e-02 
       2.000000e-01      -7.180703e-02      -7.180703e-02 
       2.000000e-01       7.180703e-02      -7.180703e-02 
       2.000000e-01       7.180703e-02       7.180703e-02 
       2.000000e-01      -7.180703e-02       7.180703e-02 
       2.000000e-01      -7.180703e-02      -7.180703e-02 
       2.000000e-01       7.180703e-02      -7.180703e-02 
       2.000000e-01       7.180703e-02       7.180703e-02 
       2.000000e-01      -7.180703e-02       7.180703e-02 
       3.000000e-01      -7.180703e-02      -7.180703e-02 
       3.000000e-01       7.180703e-02      -7.180703e-02 
       3.000000e-01       7.180703e-02       7.180704e-02 
       3.000000e-01      -7.180703e-02       7.180704e-02 
       3.000000e-01      -7.180703e-02      -7.180703e-02 
       3.000000e-01       7.180703e-02      -7.180703e-02 
       3.000000e-01       7.180703e-02       7.180704e-02 
       3.000000e-01      -7.180703e-02       7.180704e-02 
       4.000000e-01      -7.180703e-02      -7.180703e-02 
       4.000000e-01       7.180703e-02      -7.180703e-02 
       4.000000e-01       7.180703e-02       7.180704e-02 
       4.000000e-01      -7.180703e-02       7.180704e-02 
       4.000000e-01      -7.180703e-02      -7.180703e-02 
       4.000000e-01       7.180703e-02      -7.180703e-02 
       4.000000e-01       7.180703e-02       7.180704e-02 
       4.000000e-01      -7.180703e-02       7.180704e-02 
       5.000000e-01      -7.180703e-02      -7.180702e-02 
       5.000000e-01       7.180703e-02      -7.180702e-02 
       5.000000e-01       7.180703e-02       7.180704e-02 
       5.000000e-01      -7.180703e-02       7.180704e-02 
       5.000000e-01      -7.180703e-02      -7.180702e-02 
       5.000000e-01       7.180703e-02      -7.180702e-02 
       5.000000e-01       7.180703e-02       7.180704e-02 
       5.000000e-01      -7.180703e-02       7.180704e-02 
       6.000000e-01      -7.180703e-02      -7.180702e-02 
       6.000000e-01       7.180703e-02      -7.180702e-02 
       6.000000e-01       7.180703e-02       7.180705e-02 
       6.000000e-01      -7.180703e-02       7.180705e-02 
       6.000000e-01      -7.180703e-02      -7.180702e-02 
       6.000000e-01       7.180703e-02      -7.180702e-02 
       6.000000e-01       7.180703e-02       7.180705e-02 
       6.000000e-01      -7.180703e-02       7.180705e-02 
       7.000000e-01      -7.180703e-02      -7.180702e-02 
       7.000000e-01       7.180703e-02      -7.180702e-02 
       7.000000e-01       7.180703e-02       7.180705e-02 
       7.000000e-01      -7.180703e-02       7.180705e-02 
       7.000000e-01      -7.180703e-02      -7.180702e-02 
       7.000000e-01       7.180703e-02      -7.180702e-02 
       7.000000e-01       7.180703e-02       7.180705e-02 
       7.000000e-01      -7.180703e-02       7.180705e-02 
       8.000000e-01      -7.180703e-02      -7.180701e-02 
       8.000000e-01       7.180703e-02      -7.180701e-02 
       8.000000e-01       7.180703e-02       7.180705e-02 
       8.000000e-01      -7.180703e-02       7.180705e-02 
       8.000000e-01      -7.180703e-02      -7.180701e-02 
       8.000000e-01       7.180703e-02      -7.180701e-02 
       8.000000e-01       7.180703e-02       7.180705e-02 
       8.000000e-01      -7.180703e-02       7.180705e-02 
       9.000000e-01      -7.180703e-02      -7.180701e-02 
       9.000000e-01       7.180703e-02      -7.180701e-02 
       9.000000e-01       7.180703e-02       7.180706e-02 
       9.000000e-01      -7.180703e-02       7.180706e-02 
       9.000000e-01      -7.180703e-02      -7.180701e-02 
       9.000000e-01       7.180703e-02      -7.180701e-02 
       9.000000e-01       7.180703e-02       7.180706e-02 
       9.000000e-01      -7.180703e-02       7.180706e-02 
       1.000000e+00      -7.180703e-02      -7.180700e-02 
       1.000000e+00       7.180703e-02      -7.180700e-02 
       1.000000e+00       7.180703e-02       7.180707e-02 
       1.000000e+00      -7.180703e-02       7.180707e-02 
       1.000000e+00      -7.180703e-02      -7.180700e-02 
       1.000000e+00       7.180703e-02      -7.180700e-02 
       1.000000e+00       7.180703e-02       7.180707e-02 
       1.000000e+00      -7.180703e-02       7.180707e-02 
       1.100000e+00      -7.180703e-02      -7.180699e-02 
       1.100000e+00       7.180703e-02      -7.180699e-02 
       1.100000e+00       7.180703e-02       7.180707e-02 
       1.100000e+00      -7.180703e-02       7.180707e-02 
       1.100000e+00      -7.180703e-02      -7.180699e-02 
       1.100000e+00       7.180703e-02      -7.180699e-02 
       1.100000e+00       7.180703e-02       7.180707e-02 
       1.100000e+00      -7.180703e-02       7.180707e-02 
       1.200000e+00      -7.180703e-02      -7.180699e-02 
       1.200000e+00       7.180703e-02      -7.180699e-02 
       1.200000e+00       7.180703e-02       7.180708e-02 
       1.200000e+00      -7.180703e-02       7.180708e-02 
       1.200000e+00      -7.180703e-02      -7.180699e-02 
       1.200000e+00       7.180703e-02      -7.180699e-02 
       1.200000e+00       7.180703e-02       7.180708e-02 
       1.200000e+00      -7.180703e-02       7.180708e-02 
       1.300000e+00      -7.180703e-02      -7.180698e-02 
       1.300000e+00       7.180703e-02      -7.180698e-02 
       1.300000e+00       7.180703e-02       7.180709e-02 
       1.300000e+00      -7.180703e-02       7.180709e-02 
       1.300000e+00      -7.180703e-02      -7.180698e-02 
       1.300000e+00       7.180703e-02      -7.180698e-02 
       1.300000e+00       7.180703e-02       7.180709e-02 
       1.300000e+00      -7.180703e-02       7.180709e-02 
       1.400000e+00      -7.180703e-02      -7.180697e-02 
       1.400000e+00       7.180703e-02      -7.180697e-02 
       1.400000e+00       7.180703e-02       7.180710e-02 
       1.400000e+00      -7.180703e-02       7.180710e-02 
       1.400000e+00      -7.180703e-02      -7.180697e-02 
       1.400000e+00       7.180703e-02      -7.180697e-02 
       1.400000e+00       7.180703e-02       7.180710e-02 
       1.400000e+00      -7.180703e-02       7.180710e-02 
       1.500000e+00      -7.180703e-02      -7.180696e-02 
       1.500000e+00       7.180703e-02      -7.180696e-02 
       1.500000e+00       7.180703e-02       7.180710e-02 
       1.500000e+00      -7.180703e-02       7.180710e-02 
       1.500000e+00      -7.180703e-02      -7.180696e-02 
       1.500000e+00       7.180703e-02      -7.180696e-02 
       1.500000e+00       7.180703e-02       7.180710e-02 
       1.500000e+00      -7.180703e-02       7.180710e-02 
       1.600000e+00      -7.180703e-02      -7.180695e-02 
       1.600000e+00       7.180703e-02      -7.180695e-02 
       1.600000e+00       7.180703e-02       7.180711e-02 
       1.600000e+00      -7.180703e-02       7.180711e-02 
       1.600000e+00      -7.180703e-02      -7.180695e-02 
       1.600000e+00       7.180703e-02      -7.180695e-02 
       1.600000e+00       7.180703e-02       7.180711e-02 
       1.600000e+00      -7.180703e-02       7.180711e-02 
       1.700000e+00      -7.180703e-02      -7.180694e-02 
       1.700000e+00       7.180703e-02      -7.180694e-02 
       1.700000e+00       7.180703e-02       7.180712e-02 
       1.700000e+00      -7.180703e-02       7.180712e-02 
       1.700000e+00      -7.180703e-02      -7.180694e-02 
       1.700000e+00       7.180703e-02      -7.180694e-02 
       1.700000e+00       7.180703e-02       7.180712e-02 
       1.700000e+00      -7.180703e-02       7.180712e-02 
       1.800000e+00      -7.180703e-02      -7.180693e-02 
       1.800000e+00       7.180703e-02      -7.180693e-02 
       1.800000e+00       7.180703e-02       7.180713e-02 
       1.800000e+00      -7.180703e-02       7.180713e-02 
       1.800000e+00      -7.180703e-02      -7.180693e-02 
       1.800000e+00       7.180703e-02      -7.180693e-02 
       1.800000e+00       7.180703e-02       7.180713e-02 
       1.800000e+00      -7.180703e-02       7.180713e-02 
       1.900000e+00      -7.180703e-02      -7.180692e-02 
       1.900000e+00       7.180703e-02      -7.180692e-02 
       1.900000e+00       7.180703e-02       7.180715e-02 
       1.900000e+00      -7.180703e-02       7.180715e-02 
       1.900000e+00      -7.180703e-02      -7.180692e-02 
       1.900000e+00       7.180703e-02      -7.180692e-02 
       1.900000e+00       7.180703e-02       7.180715e-02 
       1.900000e+00      -7.180703e-02       7.180715e-02 
       2.000000e+00      -7.180703e-02      -7.180691e-02 
       2.000000e+00       7.180703e-02      -7.180691e-02 
       2.000000e+00       7.180703e-02       7.180716e-02 
       2.000000e+00      -7.180703e-02       7.180716e-02 
       2.000000e+00      -7.180703e-02      -7.180691e-02 
       2.000000e+00       7.180703e-02      -7.180691e-02 
       2.000000e+00       7.180703e-02       7.180716e-02 
       2.000000e+00      -7.180703e-02       7.180716e-02 
       2.100000e+00      -7.180703e-02      -7.180690e-02 
[...]
POINT_DATA       800 
VECTORS Displacements float
       8.57268949e-26      -1.38777878e-17       0.00000000e+00 
       1.86577469e-25       1.38777878e-17       0.00000000e+00 
      -8.57268949e-26       1.38777878e-17       0.00000000e+00 
      -1.86577469e-25      -1.38777878e-17       0.00000000e+00 
       5.06335224e-10       2.79234968e-12       3.50910231e-10 
       4.97614769e-10       2.79237744e-12       3.50403401e-10 
      -5.06355124e-10       3.29923588e-12       3.50403401e-10 
      -4.97634670e-10       3.29919425e-12       3.50910245e-10 
       5.06335224e-10       2.79234968e-12       3.50910231e-10 
       4.97614769e-10       2.79237744e-12       3.50403401e-10 
      -5.06355124e-10       3.29923588e-12       3.50403401e-10 
      -4.97634670e-10       3.29919425e-12       3.50910245e-10 
       1.00294120e-09       1.15985138e-11       1.39417916e-09 
       9.85667908e-10       1.15985416e-11       1.39316547e-09 
      -1.00298103e-09       1.26122307e-11       1.39316547e-09 
      -9.85707738e-10       1.26122029e-11       1.39417916e-09 
       1.00294120e-09       1.15985138e-11       1.39417916e-09 
       9.85667908e-10       1.15985416e-11       1.39316547e-09 
      -1.00298103e-09       1.26122307e-11       1.39316547e-09 
      -9.85707738e-10       1.26122029e-11       1.39417916e-09 
       1.48981799e-09       2.63017941e-11       3.11637438e-09 
       1.46415929e-09       2.63018218e-11       3.11485385e-09 
      -1.48987783e-09       2.78223555e-11       3.11485382e-09 
      -1.46421913e-09       2.78223278e-11       3.11637434e-09 
       1.48981799e-09       2.63017941e-11       3.11637438e-09 
       1.46415929e-09       2.63018218e-11       3.11485385e-09 
      -1.48987783e-09       2.78223555e-11       3.11485382e-09 
      -1.46421913e-09       2.78223278e-11       3.11637434e-09 
       1.96696553e-09       4.67855338e-11       5.50406343e-09 
       1.93308913e-09       4.67855754e-11       5.50203606e-09 
      -1.96704542e-09       4.88129537e-11       5.50203602e-09 
      -1.93316901e-09       4.88129120e-11       5.50406340e-09 
       1.96696553e-09       4.67855338e-11       5.50406343e-09 
       1.93308913e-09       4.67855754e-11       5.50203606e-09 
      -1.96704542e-09       4.88129537e-11       5.50203602e-09 
      -1.93316901e-09       4.88129120e-11       5.50406340e-09 
       2.43438369e-09       7.29330485e-11       8.54381393e-09 
       2.39245723e-09       7.29330762e-11       8.54127971e-09 
      -2.43448378e-09       7.54672991e-11       8.54127964e-09 
      -2.39255715e-09       7.54672713e-11       8.54381386e-09 
       2.43438369e-09       7.29330485e-11       8.54381393e-09 
       2.39245723e-09       7.29330762e-11       8.54127971e-09 
      -2.43448378e-09       7.54672991e-11       8.54127964e-09 
      -2.39255715e-09       7.54672713e-11       8.54381386e-09 
       2.89207280e-09       1.04627654e-10       1.22221935e-08 
       2.84226365e-09       1.04627682e-10       1.22191524e-08 
      -2.89219293e-09       1.07668749e-10       1.22191523e-08 
      -2.84238377e-09       1.07668721e-10       1.22221934e-08 
       2.89207280e-09       1.04627654e-10       1.22221935e-08 
       2.84226365e-09       1.04627682e-10       1.22191524e-08 
      -2.89219293e-09       1.07668749e-10       1.22191523e-08 
      -2.84238377e-09       1.07668721e-10       1.22221934e-08 
       3.34003269e-09       1.41752707e-10       1.65257696e-08 
       3.28250849e-09       1.41752735e-10       1.65222217e-08 
      -3.34017303e-09       1.45300647e-10       1.65222215e-08 
      -3.28264882e-09       1.45300619e-10       1.65257694e-08 
       3.34003269e-09       1.41752707e-10       1.65257696e-08 
       3.28250849e-09       1.41752735e-10       1.65222217e-08 
      -3.34017303e-09       1.45300647e-10       1.65222215e-08 
      -3.28264882e-09       1.45300619e-10       1.65257694e-08 
       3.77826348e-09       1.84191509e-10       2.14411099e-08 
       3.71319175e-09       1.84191537e-10       2.14370551e-08 
      -3.77842391e-09       1.88246294e-10       2.14370549e-08 
      -3.71335218e-09       1.88246266e-10       2.14411097e-08 
       3.77826348e-09       1.84191509e-10       2.14411099e-08 
       3.71319175e-09       1.84191537e-10       2.14370551e-08 
      -3.77842391e-09       1.88246294e-10       2.14370549e-08 
      -3.71335218e-09       1.88246266e-10       2.14411097e-08 
       4.20676483e-09       2.31827377e-10       2.69547819e-08 
       4.13431311e-09       2.31827418e-10       2.69502203e-08 
      -4.20694557e-09       2.36389019e-10       2.69502201e-08 
      -4.13449386e-09       2.36388978e-10       2.69547817e-08 
       4.20676483e-09       2.31827377e-10       2.69547819e-08 
       4.13431311e-09       2.31827418e-10       2.69502203e-08 
      -4.20694557e-09       2.36389019e-10       2.69502201e-08 
      -4.13449386e-09       2.36388978e-10       2.69547817e-08 
       4.62553706e-09       2.84543680e-10       3.30533533e-08 
       4.54587301e-09       2.84543708e-10       3.30482849e-08 
      -4.62573801e-09       2.89612154e-10       3.30482846e-08 
      -4.54607385e-09       2.89612126e-10       3.30533531e-08 
       4.62553706e-09       2.84543694e-10       3.30533533e-08 
       4.54587301e-09       2.84543722e-10       3.30482849e-08 
      -4.62573801e-09       2.89612140e-10       3.30482846e-08 
      -4.54607385e-09       2.89612112e-10       3.30533531e-08 
       5.03509567e-09       3.42252435e-10       3.97236006e-08 
       4.94837771e-09       3.42252476e-10       3.97180787e-08 
      -5.03530995e-09       3.47774393e-10       3.97180784e-08 
      -4.94859220e-09       3.47774351e-10       3.97236003e-08 
       5.03509567e-09       3.42252435e-10       3.97236006e-08 
       4.94837771e-09       3.42252476e-10       3.97180787e-08 
      -5.03530995e-09       3.47774393e-10       3.97180784e-08 
      -4.94859220e-09       3.47774351e-10       3.97236003e-08 
       5.43594925e-09       4.04820538e-10       4.69532964e-08 
       5.34232769e-09       4.04820566e-10       4.69473210e-08 
      -5.43617662e-09       4.10795981e-10       4.69473206e-08 
      -5.34255507e-09       4.10795953e-10       4.69532960e-08 
       5.43594925e-09       4.04820538e-10       4.69532964e-08 
       5.34232769e-09       4.04820566e-10       4.69473210e-08 
      -5.43617662e-09       4.10795981e-10       4.69473206e-08 
      -5.34255507e-09       4.10795953e-10       4.69532960e-08 
       5.82809756e-09       4.72143588e-10       5.47304221e-08 
       5.72772207e-09       4.72143616e-10       5.47239932e-08 
      -5.82833848e-09       4.78572515e-10       5.47239928e-08 
      -5.72796299e-09       4.78572473e-10       5.47304217e-08 
       5.82809756e-09       4.72143588e-10       5.47304221e-08 
       5.72772207e-09       4.72143616e-10       5.47239932e-08 
      -5.82833848e-09       4.78572515e-10       5.47239928e-08 
      -5.72796299e-09       4.78572473e-10       5.47304217e-08 
       6.21154106e-09       5.44117196e-10       6.30429593e-08 
       6.10456152e-09       5.44117223e-10       6.30360769e-08 
      -6.21179508e-09       5.50999607e-10       6.30360764e-08 
      -6.10481576e-09       5.50999579e-10       6.30429588e-08 
       6.21154106e-09       5.44117196e-10       6.30429593e-08 
       6.10456152e-09       5.44117223e-10       6.30360769e-08 
      -6.21179508e-09       5.50999607e-10       6.30360764e-08 
      -6.10481576e-09       5.50999579e-10       6.30429588e-08 
       6.58627886e-09       6.20636958e-10       7.18788895e-08 
       6.47284537e-09       6.20636986e-10       7.18715536e-08 
      -6.58654686e-09       6.27972868e-10       7.18715530e-08 
      -6.47311360e-09       6.27972840e-10       7.18788890e-08 
       6.58627886e-09       6.20636958e-10       7.18788895e-08 
       6.47284537e-09       6.20636986e-10       7.18715536e-08 
      -6.58654686e-09       6.27972868e-10       7.18715530e-08 
      -6.47311360e-09       6.27972840e-10       7.18788890e-08 
       6.95231162e-09       7.01598515e-10       8.12261943e-08 
       6.83257451e-09       7.01598543e-10       8.12184049e-08 
      -6.95259361e-09       7.09387923e-10       8.12184042e-08 
      -6.83285650e-09       7.09387896e-10       8.12261936e-08 
       6.95231162e-09       7.01598515e-10       8.12261943e-08 
       6.83257451e-09       7.01598543e-10       8.12184049e-08 
      -6.95259361e-09       7.09387923e-10       8.12184042e-08 
      -6.83285650e-09       7.09387896e-10       8.12261936e-08 
       7.30963978e-09       7.86897450e-10       9.10728550e-08 
       7.18374848e-09       7.86897478e-10       9.10646122e-08 
      -7.30993532e-09       7.95140329e-10       9.10646115e-08 
      -7.18404380e-09       7.95140301e-10       9.10728543e-08 
       7.30963978e-09       7.86897450e-10       9.10728550e-08 
       7.18374848e-09       7.86897478e-10       9.10646122e-08 
      -7.30993532e-09       7.95140329e-10       9.10646115e-08 
      -7.18404380e-09       7.95140301e-10       9.10728543e-08 
       7.65826269e-09       8.76429374e-10       1.01406853e-07 
       7.52636686e-09       8.76429401e-10       1.01398157e-07 
      -7.65857200e-09       8.85125750e-10       1.01398156e-07 
      -7.52667639e-09       8.85125709e-10       1.01406853e-07 
       7.65826269e-09       8.76429374e-10       1.01406853e-07 
       7.52636686e-09       8.76429401e-10       1.01398157e-07 
      -7.65857200e-09       8.85125750e-10       1.01398156e-07 
      -7.52667639e-09       8.85125709e-10       1.01406853e-07 
       7.99818034e-09       9.70089897e-10       1.12216171e-07 
       7.86043031e-09       9.70089925e-10       1.12207021e-07 
      -7.99850342e-09       9.79239773e-10       1.12207020e-07 
      -7.86075338e-09       9.79239745e-10       1.12216170e-07 
       7.99818034e-09       9.70089897e-10       1.12216171e-07 
       7.86043031e-09       9.70089925e-10       1.12207021e-07 
      -7.99850342e-09       9.79239773e-10       1.12207020e-07 
      -7.86075338e-09       9.79239745e-10       1.12216170e-07 
       8.32939273e-09       1.06777463e-09       1.23488789e-07 
       8.18593859e-09       1.06777466e-09       1.23479186e-07 
      -8.32973024e-09       1.07737801e-09       1.23479185e-07 
      -8.18627566e-09       1.07737796e-09       1.23488788e-07 
       8.32939273e-09       1.06777463e-09       1.23488789e-07 
       8.18593815e-09       1.06777466e-09       1.23479186e-07 
      -8.32973024e-09       1.07737798e-09       1.23479185e-07 
      -8.18627588e-09       1.07737795e-09       1.23488788e-07 
       8.65241434e-09       1.16940790e-09       1.35212898e-07 
       8.50339710e-09       1.16940793e-09       1.35202895e-07 
      -8.65276117e-09       1.17941140e-09       1.35202894e-07 
      -8.50374393e-09       1.17941137e-09       1.35212897e-07 
       8.65241434e-09       1.16940790e-09       1.35212898e-07 
       8.50339710e-09       1.16940793e-09       1.35202895e-07 
      -8.65276117e-09       1.17941140e-09       1.35202894e-07 
      -8.50374393e-09       1.17941137e-09       1.35212897e-07 
       8.96775543e-09       1.27486888e-09       1.47377685e-07 
       8.81330697e-09       1.27486890e-09       1.47367281e-07 
      -8.96811159e-09       1.28527250e-09       1.47367280e-07 
      -8.81366313e-09       1.28527247e-09       1.47377684e-07 
       8.96775543e-09       1.27486888e-09       1.47377685e-07 
       8.81330697e-09       1.27486890e-09       1.47367281e-07 
      -8.96811159e-09       1.28527250e-09       1.47367280e-07 
      -8.81366313e-09       1.28527247e-09       1.47377684e-07 
       9.27541599e-09       1.38406545e-09       1.59972545e-07 
       9.11566866e-09       1.38406547e-09       1.59961741e-07 
      -9.27578059e-09       1.39486923e-09       1.59961740e-07 
      -9.11603326e-09       1.39486919e-09       1.59972543e-07 
       9.27541599e-09       1.38406545e-09       1.59972545e-07 
       9.11566866e-09       1.38406547e-09       1.59961741e-07 
      -9.27578059e-09       1.39486923e-09       1.59961740e-07 
      -9.11603326e-09       1.39486919e-09       1.59972543e-07 
       9.57539470e-09       1.49690552e-09       1.72986873e-07 
       9.41048084e-09       1.49690556e-09       1.72975669e-07 
      -9.57576907e-09       1.50810943e-09       1.72975668e-07 
      -9.41085565e-09       1.50810939e-09       1.72986872e-07 
       9.57539470e-09       1.49690552e-09       1.72986873e-07 
       9.41048084e-09       1.49690556e-09       1.72975669e-07 
      -9.57576907e-09       1.50810943e-09       1.72975668e-07 
      -9.41085565e-09       1.50810939e-09       1.72986872e-07 
       9.86769244e-09       1.61329694e-09       1.86410065e-07 
       9.69774483e-09       1.61329698e-09       1.86398461e-07 
      -9.86807658e-09       1.62490101e-09       1.86398460e-07 
      -9.69812897e-09       1.62490096e-09       1.86410064e-07 
       9.86769244e-09       1.61329694e-09       1.86410065e-07 
       9.69774483e-09       1.61329698e-09       1.86398461e-07 
      -9.86807658e-09       1.62490101e-09       1.86398460e-07 
      -9.69812897e-09       1.62490096e-09       1.86410064e-07 
       1.01523092e-08       1.73314764e-09       2.00231517e-07 
       9.97745975e-09       1.73314767e-09       2.00219513e-07 
      -1.01527036e-08       1.74515184e-09       2.00219511e-07 
      -9.97785365e-09       1.74515181e-09       2.00231515e-07 
       1.01523092e-08       1.73314764e-09       2.00231517e-07 
       9.97745975e-09       1.73314767e-09       2.00219513e-07 
      -1.01527036e-08       1.74515184e-09       2.00219511e-07 
      -9.97785365e-09       1.74515181e-09       2.00231515e-07 
       1.04292450e-08       1.85636549e-09       2.14440623e-07 
       1.02496260e-08       1.85636552e-09       2.14428219e-07 
      -1.04296491e-08       1.86876982e-09       2.14428218e-07 
      -1.02500302e-08       1.86876979e-09       2.14440622e-07 
       1.04292450e-08       1.85636549e-09       2.14440623e-07 
       1.02496260e-08       1.85636552e-09       2.14428219e-07 
      -1.04296491e-08       1.86876982e-09       2.14428218e-07 
      -1.02500302e-08       1.86876979e-09       2.14440622e-07 
       1.06985008e-08       1.98285838e-09       2.29026780e-07 
       1.05142437e-08       1.98285841e-09       2.29013976e-07 
      -1.06989138e-08       1.99566286e-09       2.29013974e-07 
      -1.05146571e-08       1.99566283e-09       2.29026779e-07 
       1.06985008e-08       1.98285838e-09       2.29026780e-07 
       1.05142437e-08       1.98285841e-09       2.29013976e-07 
      -1.06989138e-08       1.99566286e-09       2.29013974e-07 
      -1.05146571e-08       1.99566283e-09       2.29026779e-07 
       1.09600742e-08       2.11253420e-09       2.43979383e-07 
       1.07713127e-08       2.11253423e-09       2.43966178e-07 
      -1.09604978e-08       2.12573881e-09       2.43966177e-07 
      -1.07717364e-08       2.12573878e-09       2.43979381e-07 
       1.09600742e-08       2.11253420e-09       2.43979383e-07 
       1.07713127e-08       2.11253423e-09       2.43966178e-07 
      -1.09604978e-08       2.12573881e-09       2.43966177e-07 
      -1.07717364e-08       2.12573878e-09       2.43979381e-07 
       1.12139671e-08       2.24530083e-09       2.59287827e-07 
       1.10208331e-08       2.24530088e-09       2.59274222e-07 
      -1.12144010e-08       2.25890559e-09       2.59274220e-07 
      -1.10212666e-08       2.25890556e-09       2.59287825e-07 
       1.12139675e-08       2.24530086e-09       2.59287827e-07 
       1.10208331e-08       2.24530089e-09       2.59274222e-07 
      -1.12144010e-08       2.25890559e-09       2.59274220e-07 
      -1.10212666e-08       2.25890556e-09       2.59287825e-07 
       1.14606928e-08       2.38109493e-09       2.74941717e-07 
       1.12633094e-08       2.38109496e-09       2.74927765e-07 
      -1.14611334e-08       2.39504647e-09       2.74927763e-07 
      -1.12637499e-08       2.39504644e-09       2.74941715e-07 
       1.14606928e-08       2.38109493e-09       2.74941717e-07 
       1.12633094e-08       2.38109496e-09       2.74927765e-07 
      -1.14611334e-08       2.39504647e-09       2.74927763e-07 
      -1.12637499e-08       2.39504644e-09       2.74941715e-07 
       1.17007617e-08       2.51980789e-09       2.90931652e-07 
       1.14992438e-08       2.51980793e-09       2.90917354e-07 
      -1.17012093e-08       2.53410622e-09       2.90917352e-07 
      -1.14996910e-08       2.53410617e-09       2.90931650e-07 
       1.17007617e-08       2.51980789e-09       2.90931652e-07 
       1.14992438e-08       2.51980793e-09       2.90917354e-07 
      -1.17012093e-08       2.53410622e-09       2.90917352e-07 
      -1.14996910e-08       2.53410617e-09       2.90931650e-07 
       1.19341741e-08       2.66135991e-09       3.07248444e-07 
       1.17286358e-08       2.66135994e-09       3.07233798e-07 
      -1.19346280e-08       2.67600500e-09       3.07233797e-07 
      -1.17290897e-08       2.67600497e-09       3.07248442e-07 
       1.19341741e-08       2.66135991e-09       3.07248444e-07 
       1.17286358e-08       2.66135994e-09       3.07233798e-07 
      -1.19346280e-08       2.67600500e-09       3.07233797e-07 
      -1.17290897e-08       2.67600497e-09       3.07248442e-07 
       1.21609292e-08       2.80567113e-09       3.23882900e-07 
       1.19514856e-08       2.80567115e-09       3.23867908e-07 
      -1.21613901e-08       2.82066302e-09       3.23867906e-07 
      -1.19519470e-08       2.82066299e-09       3.23882898e-07 
       1.21609292e-08       2.80567113e-09       3.23882900e-07 
       1.19514856e-08       2.80567115e-09       3.23867908e-07 
      -1.21613901e-08       2.82066302e-09       3.23867906e-07 
      -1.19519470e-08       2.82066299e-09       3.23882898e-07 
       1.23810269e-08       2.95266175e-09       3.40825830e-07 
       1.21677930e-08       2.95266178e-09       3.40810492e-07 
      -1.23814958e-08       2.96800043e-09       3.40810490e-07 
      -1.21682620e-08       2.96800040e-09       3.40825828e-07 
       1.23810269e-08       2.95266175e-09       3.40825830e-07 
       1.21677930e-08       2.95266178e-09       3.40810492e-07 
      -1.23814958e-08       2.96800043e-09       3.40810490e-07 
      -1.21682620e-08       2.96800040e-09       3.40825828e-07 
       1.25944681e-08       3.10225196e-09       3.58068045e-07 
       1.23775585e-08       3.10225200e-09       3.58052359e-07 
      -1.25949446e-08       3.11793742e-09       3.58052357e-07 
      -1.23780346e-08       3.11793738e-09       3.58068042e-07 
       1.25944681e-08       3.10225196e-09       3.58068045e-07 
       1.23775585e-08       3.10225200e-09       3.58052359e-07 
      -1.25949446e-08       3.11793742e-09       3.58052357e-07 
      -1.23780346e-08       3.11793738e-09       3.58068042e-07 
       1.28012525e-08       3.25436188e-09       3.75600352e-07 
       1.25807813e-08       3.25436190e-09       3.75584320e-07 
      -1.28017366e-08       3.27039414e-09       3.75584317e-07 
      -1.25812654e-08       3.27039411e-09       3.75600350e-07 
       1.28012525e-08       3.25436188e-09       3.75600352e-07 
       1.25807813e-08       3.25436190e-09       3.75584320e-07 
      -1.28017366e-08       3.27039414e-09       3.75584317e-07 
      -1.25812654e-08       3.27039411e-09       3.75600350e-07 
       1.30013809e-08       3.40891171e-09       3.93413562e-07 
       1.27774626e-08       3.40891174e-09       3.93397183e-07 
      -1.30018716e-08       3.42529075e-09       3.93397180e-07 
      -1.27779534e-08       3.42529072e-09       3.93413559e-07 
       1.30013809e-08       3.40891171e-09       3.93413562e-07 
       1.27774626e-08       3.40891174e-09       3.93397183e-07 