# vtk DataFile Version 2.0
./output/onsasExample_nonLinearCantileverBlade_staitc3D_pitch numElements=10/onsasExample_nonLinearCantileverBlade_staitc3D_pitch numElements=10_0016.vtk
ASCII
DATASET UNSTRUCTURED_GRID

POINTS 800 float
       6.571244e-25      -7.180703e-02      -7.180703e-02 
       1.088340e-24       7.180703e-02      -7.180703e-02 
      -6.571244e-25       7.180703e-02       7.180703e-02 
      -1.088340e-24      -7.180703e-02       7.180703e-02 
       1.000000e-01      -7.180703e-02      -7.180703e-02 
       1.000000e-01       7.180703e-02      -7.180703e-02 
       1.000000e-01       7.180703e-02       7.180704e-02 
       1.000000e-01      -7.180703e-02       7.180704e-02 
       1.000000e-01      -7.180703e-02      -7.180703e-02 
       1.000000e-01       7.180703e-02      -7.180703e-02 
       1.000000e-01       7.180703e-02       7.180704e-02 
       1.000000e-01      -7.180703e-02       7.180704e-02 
       2.000000e-01      -7.180703e-02      -7.180702e-02 
       2.000000e-01       7.180703e-02      -7.180702e-02 
       2.000000e-01       7.180703e-02       7.180704e-02 
       2.000000e-01      -7.180703e-02       7.180704e-02 
       2.000000e-01      -7.180703e-02      -7.180702e-02 
       2.000000e-01       7.180703e-02      -7.180702e-02 
       2.000000e-01       7.180703e-02       7.180704e-02 
       2.000000e-01      -7.180703e-02       7.180704e-02 
       3.000000e-01      -7.180703e-02      -7.180701e-02 
       3.000000e-01       7.180703e-02      -7.180701e-02 
       3.000000e-01       7.180703e-02       7.180706e-02 
       3.000000e-01      -7.180703e-02       7.180706e-02 
       3.000000e-01      -7.180703e-02      -7.180701e-02 
       3.000000e-01       7.180703e-02      -7.180701e-02 
       3.000000e-01       7.180703e-02       7.180706e-02 
       3.000000e-01      -7.180703e-02       7.180706e-02 
       4.000000e-01      -7.180703e-02      -7.180699e-02 
       4.000000e-01       7.180703e-02      -7.180699e-02 
       4.000000e-01       7.180703e-02       7.180708e-02 
       4.000000e-01      -7.180703e-02       7.180708e-02 
       4.000000e-01      -7.180703e-02      -7.180699e-02 
       4.000000e-01       7.180703e-02      -7.180699e-02 
       4.000000e-01       7.180703e-02       7.180708e-02 
       4.000000e-01      -7.180703e-02       7.180708e-02 
       5.000000e-01      -7.180703e-02      -7.180697e-02 
       5.000000e-01       7.180704e-02      -7.180697e-02 
       5.000000e-01       7.180704e-02       7.180710e-02 
       5.000000e-01      -7.180703e-02       7.180710e-02 
       5.000000e-01      -7.180703e-02      -7.180697e-02 
       5.000000e-01       7.180704e-02      -7.180697e-02 
       5.000000e-01       7.180704e-02       7.180710e-02 
       5.000000e-01      -7.180703e-02       7.180710e-02 
       6.000000e-01      -7.180703e-02      -7.180694e-02 
       6.000000e-01       7.180704e-02      -7.180694e-02 
       6.000000e-01       7.180704e-02       7.180713e-02 
       6.000000e-01      -7.180703e-02       7.180713e-02 
       6.000000e-01      -7.180703e-02      -7.180694e-02 
       6.000000e-01       7.180704e-02      -7.180694e-02 
       6.000000e-01       7.180704e-02       7.180713e-02 
       6.000000e-01      -7.180703e-02       7.180713e-02 
       7.000000e-01      -7.180703e-02      -7.180690e-02 
       7.000000e-01       7.180704e-02      -7.180690e-02 
       7.000000e-01       7.180704e-02       7.180716e-02 
       7.000000e-01      -7.180703e-02       7.180716e-02 
       7.000000e-01      -7.180703e-02      -7.180690e-02 
       7.000000e-01       7.180704e-02      -7.180690e-02 
       7.000000e-01       7.180704e-02       7.180716e-02 
       7.000000e-01      -7.180703e-02       7.180716e-02 
       8.000000e-01      -7.180703e-02      -7.180686e-02 
       8.000000e-01       7.180704e-02      -7.180686e-02 
       8.000000e-01       7.180704e-02       7.180720e-02 
       8.000000e-01      -7.180703e-02       7.180720e-02 
       8.000000e-01      -7.180703e-02      -7.180686e-02 
       8.000000e-01       7.180704e-02      -7.180686e-02 
       8.000000e-01       7.180704e-02       7.180720e-02 
       8.000000e-01      -7.180703e-02       7.180720e-02 
       9.000000e-01      -7.180703e-02      -7.180682e-02 
       9.000000e-01       7.180704e-02      -7.180682e-02 
       9.000000e-01       7.180704e-02       7.180724e-02 
       9.000000e-01      -7.180703e-02       7.180724e-02 
       9.000000e-01      -7.180703e-02      -7.180682e-02 
       9.000000e-01       7.180704e-02      -7.180682e-02 
       9.000000e-01       7.180704e-02       7.180724e-02 
       9.000000e-01      -7.180703e-02       7.180724e-02 
       1.000000e+00      -7.180702e-02      -7.180677e-02 
       1.000000e+00       7.180704e-02      -7.180677e-02 
       1.000000e+00       7.180704e-02       7.180729e-02 
       1.000000e+00      -7.180702e-02       7.180729e-02 
       1.000000e+00      -7.180702e-02      -7.180677e-02 
       1.000000e+00       7.180704e-02      -7.180677e-02 
       1.000000e+00       7.180704e-02       7.180729e-02 
       1.000000e+00      -7.180702e-02       7.180729e-02 
       1.100000e+00      -7.180702e-02      -7.180672e-02 
       1.100000e+00       7.180704e-02      -7.180672e-02 
       1.100000e+00       7.180704e-02       7.180734e-02 
       1.100000e+00      -7.180702e-02       7.180735e-02 
       1.100000e+00      -7.180702e-02      -7.180672e-02 
       1.100000e+00       7.180704e-02      -7.180672e-02 
       1.100000e+00       7.180704e-02       7.180734e-02 
       1.100000e+00      -7.180702e-02       7.180735e-02 
       1.200000e+00      -7.180702e-02      -7.180666e-02 
       1.200000e+00       7.180705e-02      -7.180666e-02 
       1.200000e+00       7.180705e-02       7.180740e-02 
       1.200000e+00      -7.180702e-02       7.180740e-02 
       1.200000e+00      -7.180702e-02      -7.180666e-02 
       1.200000e+00       7.180705e-02      -7.180666e-02 
       1.200000e+00       7.180705e-02       7.180740e-02 
       1.200000e+00      -7.180702e-02       7.180740e-02 
       1.300000e+00      -7.180702e-02      -7.180660e-02 
       1.300000e+00       7.180705e-02      -7.180660e-02 
       1.300000e+00       7.180705e-02       7.180746e-02 
       1.300000e+00      -7.180702e-02       7.180746e-02 
       1.300000e+00      -7.180702e-02      -7.180660e-02 
       1.300000e+00       7.180705e-02      -7.180660e-02 
       1.300000e+00       7.180705e-02       7.180746e-02 
       1.300000e+00      -7.180702e-02       7.180746e-02 
       1.400000e+00      -7.180702e-02      -7.180654e-02 
       1.400000e+00       7.180705e-02      -7.180654e-02 
       1.400000e+00       7.180705e-02       7.180753e-02 
       1.400000e+00      -7.180702e-02       7.180753e-02 
       1.400000e+00      -7.180702e-02      -7.180654e-02 
       1.400000e+00       7.180705e-02      -7.180654e-02 
       1.400000e+00       7.180705e-02       7.180753e-02 
       1.400000e+00      -7.180702e-02       7.180753e-02 
       1.500000e+00      -7.180701e-02      -7.180647e-02 
       1.500000e+00       7.180705e-02      -7.180647e-02 
       1.500000e+00       7.180705e-02       7.180760e-02 
       1.500000e+00      -7.180701e-02       7.180760e-02 
       1.500000e+00      -7.180701e-02      -7.180647e-02 
       1.500000e+00       7.180705e-02      -7.180647e-02 
       1.500000e+00       7.180705e-02       7.180760e-02 
       1.500000e+00      -7.180701e-02       7.180760e-02 
       1.600000e+00      -7.180701e-02      -7.180639e-02 
       1.600000e+00       7.180705e-02      -7.180640e-02 
       1.600000e+00       7.180706e-02       7.180767e-02 
       1.600000e+00      -7.180701e-02       7.180767e-02 
       1.600000e+00      -7.180701e-02      -7.180639e-02 
       1.600000e+00       7.180705e-02      -7.180640e-02 
       1.600000e+00       7.180706e-02       7.180767e-02 
       1.600000e+00      -7.180701e-02       7.180767e-02 
       1.700000e+00      -7.180701e-02      -7.180632e-02 
       1.700000e+00       7.180706e-02      -7.180632e-02 
       1.700000e+00       7.180706e-02       7.180775e-02 
       1.700000e+00      -7.180701e-02       7.180775e-02 
       1.700000e+00      -7.180701e-02      -7.180632e-02 
       1.700000e+00       7.180706e-02      -7.180632e-02 
       1.700000e+00       7.180706e-02       7.180775e-02 
       1.700000e+00      -7.180701e-02       7.180775e-02 
       1.800000e+00      -7.180701e-02      -7.180624e-02 
       1.800000e+00       7.180706e-02      -7.180624e-02 
       1.800000e+00       7.180706e-02       7.180783e-02 
       1.800000e+00      -7.180701e-02       7.180783e-02 
       1.800000e+00      -7.180701e-02      -7.180624e-02 
       1.800000e+00       7.180706e-02      -7.180624e-02 
       1.800000e+00       7.180706e-02       7.180783e-02 
       1.800000e+00      -7.180701e-02       7.180783e-02 
       1.900000e+00      -7.180700e-02      -7.180615e-02 
       1.900000e+00       7.180706e-02      -7.180615e-02 
       1.900000e+00       7.180706e-02       7.180791e-02 
       1.900000e+00      -7.180700e-02       7.180791e-02 
       1.900000e+00      -7.180700e-02      -7.180615e-02 
       1.900000e+00       7.180706e-02      -7.180615e-02 
       1.900000e+00       7.180706e-02       7.180791e-02 
       1.900000e+00      -7.180700e-02       7.180791e-02 
       2.000000e+00      -7.180700e-02      -7.180606e-02 
       2.000000e+00       7.180707e-02      -7.180606e-02 
       2.000000e+00       7.180707e-02       7.180800e-02 
       2.000000e+00      -7.180700e-02       7.180800e-02 
       2.000000e+00      -7.180700e-02      -7.180606e-02 
       2.000000e+00       7.180707e-02      -7.180606e-02 
       2.000000e+00       7.180707e-02       7.180800e-02 
       2.000000e+00      -7.180700e-02       7.180800e-02 
       2.100000e+00      -7.180700e-02      -7.180597e-02 
[...]
POINT_DATA       800 
VECTORS Displacements float
       6.57124398e-25       0.00000000e+00       0.00000000e+00 
       1.08834042e-24       0.00000000e+00       0.00000000e+00 
      -6.57124398e-25       0.00000000e+00       0.00000000e+00 
      -1.08834042e-24       0.00000000e+00       0.00000000e+00 
       4.07802837e-09       8.44757181e-11       2.76462966e-09 
       3.80725246e-09       8.44757320e-11       2.74443317e-09 
      -4.07928033e-09       1.04672215e-10       2.74443294e-09 
      -3.80850440e-09       1.04672201e-10       2.76462943e-09 
       4.07802837e-09       8.44757181e-11       2.76462966e-09 
       3.80725246e-09       8.44757320e-11       2.74443317e-09 
      -4.07928033e-09       1.04672215e-10       2.74443294e-09 
      -3.80850440e-09       1.04672201e-10       2.76462943e-09 
       8.07768577e-09       3.55684218e-10       1.09679779e-08 
       7.54133678e-09       3.55684232e-10       1.09275849e-08 
      -8.08019249e-09       3.96077157e-10       1.09275841e-08 
      -7.54384352e-09       3.96077143e-10       1.09679771e-08 
       8.07768577e-09       3.55684218e-10       1.09679779e-08 
       7.54133678e-09       3.55684232e-10       1.09275849e-08 
      -8.08019249e-09       3.96077157e-10       1.09275841e-08 
      -7.54384352e-09       3.96077143e-10       1.09679771e-08 
       1.19989723e-08       8.10002690e-10       2.45045285e-08 
       1.12022530e-08       8.10002690e-10       2.44439390e-08 
      -1.20027365e-08       8.70592057e-10       2.44439371e-08 
      -1.12060173e-08       8.70592057e-10       2.45045266e-08 
       1.19989723e-08       8.10002690e-10       2.45045285e-08 
       1.12022530e-08       8.10002690e-10       2.44439390e-08 
      -1.20027365e-08       8.70592057e-10       2.44439371e-08 
      -1.12060173e-08       8.70592057e-10       2.45045266e-08 
       1.58418878e-08       1.44380832e-09       4.32687650e-08 
       1.47900012e-08       1.44380834e-09       4.31879790e-08 
      -1.58469123e-08       1.52459412e-09       4.31879757e-08 
      -1.47950257e-08       1.52459412e-09       4.32687617e-08 
       1.58418878e-08       1.44380832e-09       4.32687650e-08 
       1.47900012e-08       1.44380834e-09       4.31879790e-08 
      -1.58469123e-08       1.52459412e-09       4.31879757e-08 
      -1.47950257e-08       1.52459412e-09       4.32687617e-08 
       1.96064324e-08       2.25347835e-09       6.71551711e-08 
       1.83045812e-08       2.25347835e-09       6.70541886e-08 
      -1.96127199e-08       2.35446056e-09       6.70541836e-08 
      -1.83108688e-08       2.35446056e-09       6.71551661e-08 
       1.96064324e-08       2.25347835e-09       6.71551711e-08 
       1.83045812e-08       2.25347835e-09       6.70541886e-08 
      -1.96127199e-08       2.35446056e-09       6.70541836e-08 
      -1.83108688e-08       2.35446056e-09       6.71551661e-08 
       2.32926062e-08       3.23538996e-09       9.60582306e-08 
       2.17459932e-08       3.23538994e-09       9.59370515e-08 
      -2.33001592e-08       3.35656858e-09       9.59370444e-08 
      -2.17535464e-08       3.35656859e-09       9.60582235e-08 
       2.32926062e-08       3.23538996e-09       9.60582306e-08 
       2.17459932e-08       3.23538994e-09       9.59370515e-08 
      -2.33001592e-08       3.35656858e-09       9.59370444e-08 
      -2.17535464e-08       3.35656859e-09       9.60582235e-08 
       2.69004091e-08       4.38592036e-09       1.29872427e-07 
       2.51142374e-08       4.38592036e-09       1.29731051e-07 
      -2.69092304e-08       4.52729537e-09       1.29731042e-07 
      -2.51230586e-08       4.52729539e-09       1.29872418e-07 
       2.69004091e-08       4.38592036e-09       1.29872427e-07 
       2.51142374e-08       4.38592036e-09       1.29731051e-07 
      -2.69092304e-08       4.52729537e-09       1.29731042e-07 
      -2.51230586e-08       4.52729539e-09       1.29872418e-07 
       3.04298412e-08       5.70144675e-09       1.68492244e-07 
       2.84093135e-08       5.70144675e-09       1.68330672e-07 
      -3.04399329e-08       5.86301817e-09       1.68330660e-07 
      -2.84194052e-08       5.86301818e-09       1.68492232e-07 
       3.04298412e-08       5.70144675e-09       1.68492244e-07 
       2.84093135e-08       5.70144675e-09       1.68330672e-07 
      -3.04399329e-08       5.86301817e-09       1.68330660e-07 
      -2.84194052e-08       5.86301818e-09       1.68492232e-07 
       3.38809025e-08       7.17834638e-09       2.11812165e-07 
       3.16312215e-08       7.17834636e-09       2.11630396e-07 
      -3.38922675e-08       7.36011414e-09       2.11630382e-07 
      -3.16425866e-08       7.36011416e-09       2.11812150e-07 
       3.38809025e-08       7.17834638e-09       2.11812165e-07 
       3.16312215e-08       7.17834636e-09       2.11630396e-07 
      -3.38922675e-08       7.36011414e-09       2.11630382e-07 
      -3.16425866e-08       7.36011416e-09       2.11812150e-07 
       3.72535933e-08       8.81299639e-09       2.59726675e-07 
       3.47799618e-08       8.81299637e-09       2.59524709e-07 
      -3.72662334e-08       9.01496054e-09       2.59524691e-07 
      -3.47926021e-08       9.01496056e-09       2.59726656e-07 
       3.72535931e-08       8.81299640e-09       2.59726675e-07 
       3.47799618e-08       8.81299639e-09       2.59524709e-07 
      -3.72662335e-08       9.01496054e-09       2.59524691e-07 
      -3.47926022e-08       9.01496056e-09       2.59726656e-07 
       4.05522615e-08       1.06029007e-08       3.12131044e-07 
       3.78596088e-08       1.06029006e-08       3.11911008e-07 
      -4.05657321e-08       1.08229350e-08       3.11910986e-07 
      -3.78730796e-08       1.08229351e-08       3.12131022e-07 
       4.05522615e-08       1.06029007e-08       3.12131044e-07 
       3.78596088e-08       1.06029006e-08       3.11911008e-07 
      -4.05657321e-08       1.08229350e-08       3.11910986e-07 
      -3.78730796e-08       1.08229351e-08       3.12131022e-07 
       4.37808068e-08       1.25436911e-08       3.68930075e-07 
       4.08737879e-08       1.25436911e-08       3.68691969e-07 
      -4.37951135e-08       1.27817957e-08       3.68691944e-07 
      -4.08880947e-08       1.27817957e-08       3.68930050e-07 
       4.37808068e-08       1.25436911e-08       3.68930075e-07 
       4.08737879e-08       1.25436911e-08       3.68691969e-07 
      -4.37951135e-08       1.27817957e-08       3.68691944e-07 
      -4.08880947e-08       1.27817957e-08       3.68930050e-07 
       4.69392287e-08       1.46321263e-08       4.30029359e-07 
       4.38224990e-08       1.46321262e-08       4.29773182e-07 
      -4.69543779e-08       1.48883011e-08       4.29773154e-07 
      -4.38376482e-08       1.48883011e-08       4.30029330e-07 
       4.69392287e-08       1.46321263e-08       4.30029359e-07 
       4.38224990e-08       1.46321262e-08       4.29773182e-07 
      -4.69543779e-08       1.48883011e-08       4.29773154e-07 
      -4.38376482e-08       1.48883011e-08       4.30029330e-07 
       5.00275277e-08       1.68649647e-08       4.95334487e-07 
       4.67057419e-08       1.68649647e-08       4.95060240e-07 
      -5.00435253e-08       1.71392098e-08       4.95060207e-07 
      -4.67217396e-08       1.71392098e-08       4.95334454e-07 
       5.00275277e-08       1.68649647e-08       4.95334487e-07 
       4.67057419e-08       1.68649647e-08       4.95060240e-07 
      -5.00435253e-08       1.71392098e-08       4.95060207e-07 
      -4.67217396e-08       1.71392098e-08       4.95334454e-07 
       5.30457034e-08       1.92389650e-08       5.64751049e-07 
       4.95235171e-08       1.92389650e-08       5.64458731e-07 
      -5.30625555e-08       1.95312803e-08       5.64458695e-07 
      -4.95403691e-08       1.95312803e-08       5.64751012e-07 
       5.30457034e-08       1.92389650e-08       5.64751049e-07 
       4.95235171e-08       1.92389650e-08       5.64458731e-07 
      -5.30625555e-08       1.95312803e-08       5.64458695e-07 
      -4.95403691e-08       1.95312803e-08       5.64751012e-07 
       5.59937561e-08       2.17508857e-08       6.38184636e-07 
       5.22758241e-08       2.17508856e-08       6.37874248e-07 
      -5.60114684e-08       2.20612712e-08       6.37874207e-07 
      -5.22935366e-08       2.20612713e-08       6.38184595e-07 
       5.59937561e-08       2.17508857e-08       6.38184636e-07 
       5.22758241e-08       2.17508856e-08       6.37874248e-07 
      -5.60114684e-08       2.20612712e-08       6.37874207e-07 
      -5.22935366e-08       2.20612713e-08       6.38184595e-07 
       5.88716860e-08       2.43974853e-08       7.15540839e-07 
       5.49626640e-08       2.43974852e-08       7.15212380e-07 
      -5.88902638e-08       2.47259410e-08       7.15212335e-07 
      -5.49812416e-08       2.47259411e-08       7.15540794e-07 
       5.88716860e-08       2.43974853e-08       7.15540839e-07 
       5.49626640e-08       2.43974852e-08       7.15212380e-07 
      -5.88902638e-08       2.47259410e-08       7.15212335e-07 
      -5.49812416e-08       2.47259411e-08       7.15540794e-07 
       6.16794928e-08       2.71755224e-08       7.96725247e-07 
       5.75840360e-08       2.71755224e-08       7.96378718e-07 
      -6.16989417e-08       2.75220483e-08       7.96378669e-07 
      -5.76034849e-08       2.75220484e-08       7.96725198e-07 
       6.16794928e-08       2.71755224e-08       7.96725247e-07 
       5.75840360e-08       2.71755224e-08       7.96378718e-07 
      -6.16989417e-08       2.75220483e-08       7.96378669e-07 
      -5.76034849e-08       2.75220484e-08       7.96725198e-07 
       6.44171774e-08       3.00817556e-08       8.81643453e-07 
       6.01399401e-08       3.00817555e-08       8.81278853e-07 
      -6.44375024e-08       3.04463517e-08       8.81278799e-07 
      -6.01602652e-08       3.04463518e-08       8.81643399e-07 
       6.44171774e-08       3.00817556e-08       8.81643453e-07 
       6.01399401e-08       3.00817555e-08       8.81278853e-07 
      -6.44375024e-08       3.04463517e-08       8.81278799e-07 
      -6.01602652e-08       3.04463518e-08       8.81643399e-07 
       6.70847387e-08       3.31129433e-08       9.70201046e-07 
       6.26303769e-08       3.31129433e-08       9.69818376e-07 
      -6.71059455e-08       3.34956097e-08       9.69818317e-07 
      -6.26515837e-08       3.34956097e-08       9.70200988e-07 
       6.70847387e-08       3.31129433e-08       9.70201046e-07 
       6.26303769e-08       3.31129433e-08       9.69818376e-07 
      -6.71059457e-08       3.34956097e-08       9.69818317e-07 
      -6.26515839e-08       3.34956097e-08       9.70200988e-07 
       6.96864597e-08       3.62669708e-08       1.06230441e-06 
       6.50593543e-08       3.62669708e-08       1.06190579e-06 
      -6.97082383e-08       3.66655813e-08       1.06190573e-06 
      -6.50811334e-08       3.66655814e-08       1.06230434e-06 
       6.96864597e-08       3.62669708e-08       1.06230441e-06 
       6.50593543e-08       3.62669708e-08       1.06190579e-06 
      -6.97082383e-08       3.66655813e-08       1.06190573e-06 
      -6.50811334e-08       3.66655814e-08       1.06230434e-06 
       7.22263058e-08       3.95398514e-08       1.15786944e-06 
       6.74305647e-08       3.95398513e-08       1.15745488e-06 
      -7.22486644e-08       3.99544060e-08       1.15745481e-06 
      -6.74529232e-08       3.99544061e-08       1.15786937e-06 
       7.22263058e-08       3.95398514e-08       1.15786944e-06 
       6.74305647e-08       3.95398513e-08       1.15745488e-06 
      -7.22486644e-08       3.99544060e-08       1.15745481e-06 
      -6.74529232e-08       3.99544061e-08       1.15786937e-06 
       7.47042788e-08       4.29287249e-08       1.25681285e-06 
       6.97440092e-08       4.29287248e-08       1.25638235e-06 
      -7.47272226e-08       4.33592237e-08       1.25638227e-06 
      -6.97669531e-08       4.33592238e-08       1.25681278e-06 
       7.47042788e-08       4.29287249e-08       1.25681285e-06 
       6.97440092e-08       4.29287248e-08       1.25638235e-06 
      -7.47272226e-08       4.33592237e-08       1.25638227e-06 
      -6.97669531e-08       4.33592238e-08       1.25681278e-06 
       7.71203768e-08       4.64307312e-08       1.35905133e-06 
       7.19996862e-08       4.64307311e-08       1.35860488e-06 
      -7.71439139e-08       4.68771742e-08       1.35860480e-06 
      -7.20232234e-08       4.68771743e-08       1.35905125e-06 
       7.71203768e-08       4.64307312e-08       1.35905133e-06 
       7.19996862e-08       4.64307311e-08       1.35860488e-06 
      -7.71439139e-08       4.68771742e-08       1.35860480e-06 
      -7.20232234e-08       4.68771743e-08       1.35905125e-06 
       7.94746002e-08       5.00430103e-08       1.46450158e-06 
       7.41975965e-08       5.00430102e-08       1.46403919e-06 
      -7.94987383e-08       5.05053975e-08       1.46403910e-06 
      -7.42217345e-08       5.05053976e-08       1.46450150e-06 
       7.94746002e-08       5.00430103e-08       1.46450158e-06 
       7.41975965e-08       5.00430102e-08       1.46403919e-06 
      -7.94987383e-08       5.05053975e-08       1.46403910e-06 
      -7.42217345e-08       5.05053976e-08       1.46450150e-06 
       8.17669501e-08       5.37627021e-08       1.57308029e-06 
       7.63377406e-08       5.37627020e-08       1.57260196e-06 
      -8.17916952e-08       5.42410334e-08       1.57260187e-06 
      -7.63624852e-08       5.42410335e-08       1.57308021e-06 
       8.17669501e-08       5.37627021e-08       1.57308029e-06 
       7.63377406e-08       5.37627020e-08       1.57260196e-06 
      -8.17916952e-08       5.42410334e-08       1.57260187e-06 
      -7.63624852e-08       5.42410335e-08       1.57308021e-06 
       8.39974259e-08       5.75869464e-08       1.68470417e-06 
       7.84201180e-08       5.75869463e-08       1.68420989e-06 
      -8.40227847e-08       5.80812219e-08       1.68420980e-06 
      -7.84454763e-08       5.80812220e-08       1.68470408e-06 
       8.39974259e-08       5.75869464e-08       1.68470417e-06 
       7.84201180e-08       5.75869463e-08       1.68420989e-06 
      -8.40227847e-08       5.80812219e-08       1.68420980e-06 
      -7.84454763e-08       5.80812220e-08       1.68470408e-06 
       8.61660285e-08       6.15128832e-08       1.79928991e-06 
       8.04447295e-08       6.15128831e-08       1.79877969e-06 
      -8.61920060e-08       6.20231028e-08       1.79877959e-06 
      -8.04707070e-08       6.20231029e-08       1.79928982e-06 
       8.61660285e-08       6.15128832e-08       1.79928991e-06 
       8.04447295e-08       6.15128831e-08       1.79877969e-06 
      -8.61920060e-08       6.20231028e-08       1.79877959e-06 
      -8.04707070e-08       6.20231029e-08       1.79928982e-06 
       8.82727567e-08       6.55376523e-08       1.91675421e-06 
       8.24115745e-08       6.55376522e-08       1.91622804e-06 
      -8.82993603e-08       6.60638161e-08       1.91622794e-06 
      -8.24381776e-08       6.60638163e-08       1.91675411e-06 
       8.82727567e-08       6.55376523e-08       1.91675421e-06 
       8.24115745e-08       6.55376522e-08       1.91622804e-06 
      -8.82993603e-08       6.60638161e-08       1.91622794e-06 
      -8.24381776e-08       6.60638163e-08       1.91675411e-06 
       9.03176112e-08       6.96583937e-08       2.03701377e-06 
       8.43206527e-08       6.96583936e-08       2.03647165e-06 
      -9.03448467e-08       7.02005017e-08       2.03647155e-06 
      -8.43478887e-08       7.02005018e-08       2.03701366e-06 
       9.03176116e-08       6.96583937e-08       2.03701377e-06 
       8.43206531e-08       6.96583936e-08       2.03647165e-06 
      -9.03448467e-08       7.02005017e-08       2.03647155e-06 
      -8.43478882e-08       7.02005018e-08       2.03701366e-06 
       9.23048229e-08       7.38733738e-08       2.15998607e-06 
       8.61759224e-08       7.38733737e-08       2.15943013e-06 
      -9.23324843e-08       7.44292999e-08       2.15943002e-06 
      -8.62035838e-08       7.44293001e-08       2.15998596e-06 
       9.23048229e-08       7.38733738e-08       2.15998607e-06 
       8.61759224e-08       7.38733737e-08       2.15943013e-06 
      -9.23324843e-08       7.44292999e-08       2.15943002e-06 
      -8.62035838e-08       7.44293001e-08       2.15998596e-06 
       9.42384091e-08       7.81789873e-08       2.28559813e-06 
       8.79811264e-08       7.81789871e-08       2.28502837e-06 
      -9.42665044e-08       7.87487316e-08       2.28502826e-06 
      -8.80092212e-08       7.87487318e-08       2.28559801e-06 
       9.42384091e-08       7.81789873e-08       2.28559813e-06 
       8.79811264e-08       7.81789871e-08       2.28502837e-06 
      -9.42665044e-08       7.87487316e-08       2.28502826e-06 
      -8.80092212e-08       7.87487318e-08       2.28559801e-06 
       9.61183715e-08       8.25727554e-08       2.41377775e-06 
       8.97362660e-08       8.25727553e-08       2.41319418e-06 
      -9.61469060e-08       8.31563180e-08       2.41319406e-06 
      -8.97648005e-08       8.31563181e-08       2.41377763e-06 
       9.61183715e-08       8.25727554e-08       2.41377775e-06 
       8.97362660e-08       8.25727553e-08       2.41319418e-06 
      -9.61469060e-08       8.31563180e-08       2.41319406e-06 
      -8.97648005e-08       8.31563181e-08       2.41377763e-06 
       9.79447088e-08       8.70521994e-08       2.54445274e-06 
       9.14413407e-08       8.70521993e-08       2.54385535e-06 
      -9.79736900e-08       8.76495802e-08       2.54385523e-06 
      -9.14703224e-08       8.76495803e-08       2.54445262e-06 
       9.79447088e-08       8.70521994e-08       2.54445274e-06 
       9.14413407e-08       8.70521993e-08       2.54385535e-06 
      -9.79736900e-08       8.76495802e-08       2.54385523e-06 
      -9.14703224e-08       8.76495803e-08       2.54445262e-06 
       9.97174210e-08       9.16148406e-08       2.67755090e-06 
       9.30963502e-08       9.16148405e-08       2.67693970e-06 
      -9.97468566e-08       9.22260396e-08       2.67693957e-06 
      -9.31257857e-08       9.22260397e-08       2.67755077e-06 
       9.97174210e-08       9.16148406e-08       2.67755090e-06 
       9.30963502e-08       9.16148405e-08       2.67693970e-06 
      -9.97468566e-08       9.22260396e-08       2.67693957e-06 
      -9.31257857e-08       9.22260397e-08       2.67755077e-06 
       1.01436509e-07       9.62582002e-08       2.81300005e-06 
       9.47012957e-08       9.62582000e-08       2.81237502e-06 
      -1.01466405e-07       9.68832173e-08       2.81237488e-06 
      -9.47311904e-08       9.68832175e-08       2.81299991e-06 
       1.01436509e-07       9.62582002e-08       2.81300005e-06 
       9.47012957e-08       9.62582000e-08       2.81237502e-06 
      -1.01466405e-07       9.68832173e-08       2.81237488e-06 
      -9.47311904e-08       9.68832175e-08       2.81299991e-06 
       1.03101973e-07       1.00979799e-07       2.95072797e-06 
       9.62561764e-08       1.00979799e-07       2.95008912e-06 
      -1.03132335e-07       1.01618635e-07       2.95008899e-06 
      -9.62865379e-08       1.01618635e-07       2.95072783e-06 
       1.03101973e-07       1.00979799e-07       2.95072797e-06 
       9.62561764e-08       1.00979799e-07       2.95008912e-06 
      -1.03132335e-07       1.01618635e-07       2.95008899e-06 
      -9.62865379e-08       1.01618635e-07       2.95072783e-06 
       1.04713813e-07       1.05777159e-07       3.09066248e-06 
       9.77609931e-08       1.05777159e-07       3.09000982e-06 
      -1.04744645e-07       1.06429813e-07       3.09000967e-06 
      -9.77918253e-08       1.06429813e-07       3.09066234e-06 
       1.04713813e-07       1.05777159e-07       3.09066248e-06 
       9.77609931e-08       1.05777159e-07       3.09000982e-06 