# vtk DataFile Version 2.0
./output/onsasExample_nonLinearCantileverBlade_staitc3D_pitch numElements=10/onsasExample_nonLinearCantileverBlade_staitc3D_pitch numElements=10_0030.vtk
ASCII
DATASET UNSTRUCTURED_GRID

POINTS 800 float
       1.271238e-24      -7.180703e-02      -7.180703e-02 
      -4.824444e-24       7.180703e-02      -7.180703e-02 
      -1.271238e-24       7.180703e-02       7.180703e-02 
       4.824444e-24      -7.180703e-02       7.180703e-02 
       1.000000e-01      -7.180703e-02      -7.180703e-02 
       1.000000e-01       7.180703e-02      -7.180703e-02 
       1.000000e-01       7.180703e-02       7.180703e-02 
       1.000000e-01      -7.180703e-02       7.180703e-02 
       1.000000e-01      -7.180703e-02      -7.180703e-02 
       1.000000e-01       7.180703e-02      -7.180703e-02 
       1.000000e-01       7.180703e-02       7.180703e-02 
       1.000000e-01      -7.180703e-02       7.180703e-02 
       2.000000e-01      -7.180703e-02      -7.180704e-02 
       2.000000e-01       7.180704e-02      -7.180704e-02 
       2.000000e-01       7.180704e-02       7.180703e-02 
       2.000000e-01      -7.180703e-02       7.180703e-02 
       2.000000e-01      -7.180703e-02      -7.180704e-02 
       2.000000e-01       7.180704e-02      -7.180704e-02 
       2.000000e-01       7.180704e-02       7.180703e-02 
       2.000000e-01      -7.180703e-02       7.180703e-02 
       3.000000e-01      -7.180703e-02      -7.180705e-02 
       3.000000e-01       7.180704e-02      -7.180705e-02 
       3.000000e-01       7.180704e-02       7.180702e-02 
       3.000000e-01      -7.180703e-02       7.180702e-02 
       3.000000e-01      -7.180703e-02      -7.180705e-02 
       3.000000e-01       7.180704e-02      -7.180705e-02 
       3.000000e-01       7.180704e-02       7.180702e-02 
       3.000000e-01      -7.180703e-02       7.180702e-02 
       4.000000e-01      -7.180702e-02      -7.180706e-02 
       4.000000e-01       7.180705e-02      -7.180706e-02 
       4.000000e-01       7.180705e-02       7.180701e-02 
       4.000000e-01      -7.180702e-02       7.180701e-02 
       4.000000e-01      -7.180702e-02      -7.180706e-02 
       4.000000e-01       7.180705e-02      -7.180706e-02 
       4.000000e-01       7.180705e-02       7.180701e-02 
       4.000000e-01      -7.180702e-02       7.180701e-02 
       5.000000e-01      -7.180701e-02      -7.180707e-02 
       5.000000e-01       7.180705e-02      -7.180707e-02 
       5.000000e-01       7.180705e-02       7.180699e-02 
       5.000000e-01      -7.180701e-02       7.180699e-02 
       5.000000e-01      -7.180701e-02      -7.180707e-02 
       5.000000e-01       7.180705e-02      -7.180707e-02 
       5.000000e-01       7.180705e-02       7.180699e-02 
       5.000000e-01      -7.180701e-02       7.180699e-02 
       6.000000e-01      -7.180700e-02      -7.180709e-02 
       6.000000e-01       7.180706e-02      -7.180709e-02 
       6.000000e-01       7.180706e-02       7.180697e-02 
       6.000000e-01      -7.180700e-02       7.180698e-02 
       6.000000e-01      -7.180700e-02      -7.180709e-02 
       6.000000e-01       7.180706e-02      -7.180709e-02 
       6.000000e-01       7.180706e-02       7.180697e-02 
       6.000000e-01      -7.180700e-02       7.180698e-02 
       7.000000e-01      -7.180699e-02      -7.180711e-02 
       7.000000e-01       7.180707e-02      -7.180711e-02 
       7.000000e-01       7.180707e-02       7.180695e-02 
       7.000000e-01      -7.180699e-02       7.180696e-02 
       7.000000e-01      -7.180699e-02      -7.180711e-02 
       7.000000e-01       7.180707e-02      -7.180711e-02 
       7.000000e-01       7.180707e-02       7.180695e-02 
       7.000000e-01      -7.180699e-02       7.180696e-02 
       8.000000e-01      -7.180698e-02      -7.180713e-02 
       8.000000e-01       7.180708e-02      -7.180714e-02 
       8.000000e-01       7.180709e-02       7.180693e-02 
       8.000000e-01      -7.180698e-02       7.180693e-02 
       8.000000e-01      -7.180698e-02      -7.180713e-02 
       8.000000e-01       7.180708e-02      -7.180714e-02 
       8.000000e-01       7.180709e-02       7.180693e-02 
       8.000000e-01      -7.180698e-02       7.180693e-02 
       9.000000e-01      -7.180697e-02      -7.180716e-02 
       9.000000e-01       7.180710e-02      -7.180716e-02 
       9.000000e-01       7.180710e-02       7.180691e-02 
       9.000000e-01      -7.180697e-02       7.180691e-02 
       9.000000e-01      -7.180697e-02      -7.180716e-02 
       9.000000e-01       7.180710e-02      -7.180716e-02 
       9.000000e-01       7.180710e-02       7.180691e-02 
       9.000000e-01      -7.180697e-02       7.180691e-02 
       1.000000e+00      -7.180695e-02      -7.180719e-02 
       1.000000e+00       7.180711e-02      -7.180719e-02 
       1.000000e+00       7.180712e-02       7.180688e-02 
       1.000000e+00      -7.180695e-02       7.180688e-02 
       1.000000e+00      -7.180695e-02      -7.180719e-02 
       1.000000e+00       7.180711e-02      -7.180719e-02 
       1.000000e+00       7.180712e-02       7.180688e-02 
       1.000000e+00      -7.180695e-02       7.180688e-02 
       1.100000e+00      -7.180694e-02      -7.180722e-02 
       1.100000e+00       7.180713e-02      -7.180722e-02 
       1.100000e+00       7.180713e-02       7.180684e-02 
       1.100000e+00      -7.180693e-02       7.180685e-02 
       1.100000e+00      -7.180694e-02      -7.180722e-02 
       1.100000e+00       7.180713e-02      -7.180722e-02 
       1.100000e+00       7.180713e-02       7.180684e-02 
       1.100000e+00      -7.180693e-02       7.180685e-02 
       1.200000e+00      -7.180692e-02      -7.180725e-02 
       1.200000e+00       7.180715e-02      -7.180726e-02 
       1.200000e+00       7.180715e-02       7.180681e-02 
       1.200000e+00      -7.180692e-02       7.180681e-02 
       1.200000e+00      -7.180692e-02      -7.180725e-02 
       1.200000e+00       7.180715e-02      -7.180726e-02 
       1.200000e+00       7.180715e-02       7.180681e-02 
       1.200000e+00      -7.180692e-02       7.180681e-02 
       1.300000e+00      -7.180690e-02      -7.180729e-02 
       1.300000e+00       7.180717e-02      -7.180729e-02 
       1.300000e+00       7.180717e-02       7.180677e-02 
       1.300000e+00      -7.180690e-02       7.180678e-02 
       1.300000e+00      -7.180690e-02      -7.180729e-02 
       1.300000e+00       7.180717e-02      -7.180729e-02 
       1.300000e+00       7.180717e-02       7.180677e-02 
       1.300000e+00      -7.180690e-02       7.180678e-02 
       1.400000e+00      -7.180688e-02      -7.180733e-02 
       1.400000e+00       7.180719e-02      -7.180733e-02 
       1.400000e+00       7.180719e-02       7.180673e-02 
       1.400000e+00      -7.180688e-02       7.180674e-02 
       1.400000e+00      -7.180688e-02      -7.180733e-02 
       1.400000e+00       7.180719e-02      -7.180733e-02 
       1.400000e+00       7.180719e-02       7.180673e-02 
       1.400000e+00      -7.180688e-02       7.180674e-02 
       1.500000e+00      -7.180686e-02      -7.180737e-02 
       1.500000e+00       7.180721e-02      -7.180737e-02 
       1.500000e+00       7.180721e-02       7.180669e-02 
       1.500000e+00      -7.180685e-02       7.180670e-02 
       1.500000e+00      -7.180686e-02      -7.180737e-02 
       1.500000e+00       7.180721e-02      -7.180737e-02 
       1.500000e+00       7.180721e-02       7.180669e-02 
       1.500000e+00      -7.180685e-02       7.180670e-02 
       1.600000e+00      -7.180684e-02      -7.180741e-02 
       1.600000e+00       7.180723e-02      -7.180742e-02 
       1.600000e+00       7.180723e-02       7.180665e-02 
       1.600000e+00      -7.180683e-02       7.180665e-02 
       1.600000e+00      -7.180684e-02      -7.180741e-02 
       1.600000e+00       7.180723e-02      -7.180742e-02 
       1.600000e+00       7.180723e-02       7.180665e-02 
       1.600000e+00      -7.180683e-02       7.180665e-02 
       1.700000e+00      -7.180681e-02      -7.180746e-02 
       1.700000e+00       7.180725e-02      -7.180746e-02 
       1.700000e+00       7.180726e-02       7.180660e-02 
       1.700000e+00      -7.180681e-02       7.180661e-02 
       1.700000e+00      -7.180681e-02      -7.180746e-02 
       1.700000e+00       7.180725e-02      -7.180746e-02 
       1.700000e+00       7.180726e-02       7.180660e-02 
       1.700000e+00      -7.180681e-02       7.180661e-02 
       1.800000e+00      -7.180679e-02      -7.180751e-02 
       1.800000e+00       7.180728e-02      -7.180751e-02 
       1.800000e+00       7.180728e-02       7.180655e-02 
       1.800000e+00      -7.180678e-02       7.180656e-02 
       1.800000e+00      -7.180679e-02      -7.180751e-02 
       1.800000e+00       7.180728e-02      -7.180751e-02 
       1.800000e+00       7.180728e-02       7.180655e-02 
       1.800000e+00      -7.180678e-02       7.180656e-02 
       1.900000e+00      -7.180676e-02      -7.180756e-02 
       1.900000e+00       7.180731e-02      -7.180756e-02 
       1.900000e+00       7.180731e-02       7.180650e-02 
       1.900000e+00      -7.180676e-02       7.180651e-02 
       1.900000e+00      -7.180676e-02      -7.180756e-02 
       1.900000e+00       7.180731e-02      -7.180756e-02 
       1.900000e+00       7.180731e-02       7.180650e-02 
       1.900000e+00      -7.180676e-02       7.180651e-02 
       2.000000e+00      -7.180673e-02      -7.180761e-02 
       2.000000e+00       7.180733e-02      -7.180762e-02 
       2.000000e+00       7.180734e-02       7.180645e-02 
       2.000000e+00      -7.180673e-02       7.180645e-02 
       2.000000e+00      -7.180673e-02      -7.180761e-02 
       2.000000e+00       7.180733e-02      -7.180762e-02 
       2.000000e+00       7.180734e-02       7.180645e-02 
       2.000000e+00      -7.180673e-02       7.180645e-02 
       2.100000e+00      -7.180670e-02      -7.180767e-02 
[...]
POINT_DATA       800 
VECTORS Displacements float
       1.27123795e-24      -2.77555756e-17      -1.38777878e-17 
      -4.82444439e-24       1.38777878e-17      -2.77555756e-17 
      -1.27123795e-24       2.77555756e-17       1.38777878e-17 
       4.82444439e-24      -1.38777878e-17       2.77555756e-17 
      -1.13413916e-09       7.41661982e-10      -1.53301681e-09 
      -3.59799113e-09       7.41661996e-10      -1.77079326e-09 
       1.13159884e-09       9.79438516e-10      -1.77079332e-09 
       3.59545080e-09       9.79438516e-10      -1.53301687e-09 
      -1.13413916e-09       7.41661982e-10      -1.53301681e-09 
      -3.59799113e-09       7.41661996e-10      -1.77079326e-09 
       1.13159884e-09       9.79438516e-10      -1.77079332e-09 
       3.59545080e-09       9.79438516e-10      -1.53301687e-09 
      -2.24651134e-09       3.18244793e-09      -6.32765799e-09 
      -7.12687345e-09       3.18244786e-09      -6.80321081e-09 
       2.24142943e-09       3.65800101e-09      -6.80321111e-09 
       7.12179155e-09       3.65800107e-09      -6.32765829e-09 
      -2.24651134e-09       3.18244793e-09      -6.32765799e-09 
      -7.12687345e-09       3.18244786e-09      -6.80321081e-09 
       2.24142943e-09       3.65800101e-09      -6.80321111e-09 
       7.12179155e-09       3.65800107e-09      -6.32765829e-09 
      -3.33711664e-09       7.28939319e-09      -1.43206449e-08 
      -1.05866471e-08       7.28939303e-09      -1.50339741e-08 
       3.32949174e-09       8.00272286e-09      -1.50339747e-08 
       1.05790222e-08       8.00272301e-09      -1.43206456e-08 
      -3.33711664e-09       7.28939319e-09      -1.43206449e-08 
      -1.05866471e-08       7.28939303e-09      -1.50339741e-08 
       3.32949174e-09       8.00272286e-09      -1.50339747e-08 
       1.05790222e-08       8.00272301e-09      -1.43206456e-08 
      -4.40595477e-09       1.30295332e-08      -2.54486990e-08 
      -1.39773117e-08       1.30295329e-08      -2.63998043e-08 
       4.39578590e-09       1.39806395e-08      -2.63998055e-08 
       1.39671428e-08       1.39806397e-08      -2.54487001e-08 
      -4.40595477e-09       1.30295332e-08      -2.54486990e-08 
      -1.39773117e-08       1.30295329e-08      -2.63998043e-08 
       4.39578590e-09       1.39806395e-08      -2.63998055e-08 
       1.39671428e-08       1.39806397e-08      -2.54487001e-08 
      -5.45302609e-09       2.03699032e-08      -3.96485414e-08 
      -1.72988676e-08       2.03699027e-08      -4.08374230e-08 
       5.44031176e-09       2.15587861e-08      -4.08374248e-08 
       1.72861533e-08       2.15587866e-08      -3.96485432e-08 
      -5.45302609e-09       2.03699032e-08      -3.96485414e-08 
      -1.72988676e-08       2.03699027e-08      -4.08374230e-08 
       5.44031176e-09       2.15587861e-08      -4.08374248e-08 
       1.72861533e-08       2.15587866e-08      -3.96485432e-08 
      -6.47833032e-09       2.92775387e-08      -5.68568937e-08 
      -2.05513147e-08       2.92775380e-08      -5.82835514e-08 
       6.46306930e-09       3.07041983e-08      -5.82835539e-08 
       2.05360539e-08       3.07041990e-08      -5.68568963e-08 
      -6.47833032e-09       2.92775387e-08      -5.68568937e-08 
      -2.05513147e-08       2.92775380e-08      -5.82835514e-08 
       6.46306930e-09       3.07041983e-08      -5.82835539e-08 
       2.05360539e-08       3.07041990e-08      -5.68568963e-08 
      -7.48186746e-09       3.97194750e-08      -7.70104772e-08 
      -2.37346528e-08       3.97194741e-08      -7.86749108e-08 
       7.46405893e-09       4.13839113e-08      -7.86749142e-08 
       2.37168443e-08       4.13839122e-08      -7.70104805e-08 
      -7.48186746e-09       3.97194750e-08      -7.70104772e-08 
      -2.37346528e-08       3.97194741e-08      -7.86749108e-08 
       7.46405893e-09       4.13839113e-08      -7.86749142e-08 
       2.37168443e-08       4.13839122e-08      -7.70104805e-08 
      -8.46363768e-09       5.16627476e-08      -1.00046013e-07 
      -2.68488821e-08       5.16627464e-08      -1.01948223e-07 
       8.44328041e-09       5.35649606e-08      -1.01948227e-07 
       2.68285248e-08       5.35649617e-08      -1.00046017e-07 
      -8.46363768e-09       5.16627476e-08      -1.00046013e-07 
      -2.68488821e-08       5.16627464e-08      -1.01948223e-07 
       8.44328041e-09       5.35649606e-08      -1.01948227e-07 
       2.68285248e-08       5.35649617e-08      -1.00046017e-07 
      -9.42364053e-09       6.50743917e-08      -1.25900223e-07 
      -2.98940025e-08       6.50743902e-08      -1.28040208e-07 
       9.40073352e-09       6.72143814e-08      -1.28040214e-07 
       2.98710954e-08       6.72143829e-08      -1.25900228e-07 
      -9.42364053e-09       6.50743917e-08      -1.25900223e-07 
      -2.98940025e-08       6.50743902e-08      -1.28040208e-07 
       9.40073352e-09       6.72143814e-08      -1.28040214e-07 
       2.98710954e-08       6.72143829e-08      -1.25900228e-07 
      -1.03618768e-08       7.99214427e-08      -1.54509828e-07 
      -3.28700142e-08       7.99214410e-08      -1.56887589e-07 
       1.03364184e-08       8.22992093e-08      -1.56887596e-07 
       3.28445557e-08       8.22992110e-08      -1.54509834e-07 
      -1.03618767e-08       7.99214427e-08      -1.54509828e-07 
      -3.28700140e-08       7.99214410e-08      -1.56887589e-07 
       1.03364184e-08       8.22992093e-08      -1.56887596e-07 
       3.28445557e-08       8.22992110e-08      -1.54509834e-07 
      -1.12790359e-08       9.61840285e-08      -1.85825173e-07 
      -3.57800987e-08       9.61840264e-08      -1.88415683e-07 
       1.12519363e-08       9.87745437e-08      -1.88415690e-07 
       3.57529988e-08       9.87745458e-08      -1.85825181e-07 
      -1.12790359e-08       9.61840285e-08      -1.85825173e-07 
      -3.57800987e-08       9.61840264e-08      -1.88415683e-07 
       1.12519363e-08       9.87745437e-08      -1.88415690e-07 
       3.57529988e-08       9.87745458e-08      -1.85825181e-07 
      -1.21767203e-08       1.13819562e-07      -2.19776018e-07 
      -3.86283496e-08       1.13819559e-07      -2.22579275e-07 
       1.21479764e-08       1.16622826e-07      -2.22579284e-07 
       3.85996060e-08       1.16622828e-07      -2.19776027e-07 
      -1.21767203e-08       1.13819562e-07      -2.19776018e-07 
      -3.86283496e-08       1.13819559e-07      -2.22579275e-07 
       1.21479764e-08       1.16622826e-07      -2.22579284e-07 
       3.85996060e-08       1.16622828e-07      -2.19776027e-07 
      -1.30549298e-08       1.32798548e-07      -2.56305743e-07 
      -4.14147676e-08       1.32798545e-07      -2.59321748e-07 
       1.30245390e-08       1.35814561e-07      -2.59321758e-07 
       4.13843768e-08       1.35814564e-07      -2.56305754e-07 
      -1.30549298e-08       1.32798548e-07      -2.56305743e-07 
      -4.14147676e-08       1.32798545e-07      -2.59321748e-07 
       1.30245390e-08       1.35814561e-07      -2.59321758e-07 
       4.13843768e-08       1.35814564e-07      -2.56305754e-07 
      -1.39136640e-08       1.53091493e-07      -2.95357732e-07 
      -4.41393520e-08       1.53091490e-07      -2.98586484e-07 
       1.38816239e-08       1.56320254e-07      -2.98586496e-07 
       4.41073116e-08       1.56320257e-07      -2.95357744e-07 
      -1.39136640e-08       1.53091493e-07      -2.95357732e-07 
      -4.41393520e-08       1.53091490e-07      -2.98586484e-07 
       1.38816239e-08       1.56320254e-07      -2.98586496e-07 
       4.41073116e-08       1.56320257e-07      -2.95357744e-07 
      -1.47529240e-08       1.74668901e-07      -3.36875366e-07 
      -4.68021031e-08       1.74668898e-07      -3.40316866e-07 
       1.47192309e-08       1.78110411e-07      -3.40316879e-07 
       4.67684100e-08       1.78110415e-07      -3.36875380e-07 
      -1.47529240e-08       1.74668901e-07      -3.36875366e-07 
      -4.68021031e-08       1.74668898e-07      -3.40316866e-07 
       1.47192309e-08       1.78110411e-07      -3.40316879e-07 
       4.67684100e-08       1.78110415e-07      -3.36875380e-07 
      -1.55727087e-08       1.97501279e-07      -3.80802029e-07 
      -4.94030208e-08       1.97501275e-07      -3.84456276e-07 
       1.55373603e-08       2.01155537e-07      -3.84456290e-07 
       4.93676726e-08       2.01155541e-07      -3.80802043e-07 
      -1.55727087e-08       1.97501279e-07      -3.80802029e-07 
      -4.94030208e-08       1.97501275e-07      -3.84456276e-07 
       1.55373603e-08       2.01155537e-07      -3.84456290e-07 
       4.93676726e-08       2.01155541e-07      -3.80802043e-07 
      -1.63730181e-08       2.21559130e-07      -4.27081101e-07 
      -5.19421046e-08       2.21559126e-07      -4.30948095e-07 
       1.63360128e-08       2.25426137e-07      -4.30948112e-07 
       5.19050993e-08       2.25426142e-07      -4.27081117e-07 
      -1.63730181e-08       2.21559130e-07      -4.27081101e-07 
      -5.19421046e-08       2.21559126e-07      -4.30948095e-07 
       1.63360128e-08       2.25426137e-07      -4.30948112e-07 
       5.19050993e-08       2.25426142e-07      -4.27081117e-07 
      -1.71538528e-08       2.46812961e-07      -4.75655965e-07 
      -5.44193552e-08       2.46812957e-07      -4.79735708e-07 
       1.71151875e-08       2.50892717e-07      -4.79735725e-07 
       5.43806900e-08       2.50892722e-07      -4.75655983e-07 
      -1.71538528e-08       2.46812961e-07      -4.75655965e-07 
      -5.44193552e-08       2.46812957e-07      -4.79735708e-07 
       1.71151875e-08       2.50892717e-07      -4.79735725e-07 
       5.43806900e-08       2.50892722e-07      -4.75655983e-07 
      -1.79152122e-08       2.73233278e-07      -5.26470005e-07 
      -5.68347720e-08       2.73233272e-07      -5.30762494e-07 
       1.78748847e-08       2.77525782e-07      -5.30762514e-07 
       5.67944447e-08       2.77525787e-07      -5.26470024e-07 
      -1.79152122e-08       2.73233278e-07      -5.26470005e-07 
      -5.68347720e-08       2.73233272e-07      -5.30762494e-07 
       1.78748847e-08       2.77525782e-07      -5.30762514e-07 
       5.67944447e-08       2.77525787e-07      -5.26470024e-07 
      -1.86570968e-08       3.00790584e-07      -5.79466601e-07 
      -5.91883558e-08       3.00790578e-07      -5.83971838e-07 
       1.86151041e-08       3.05295837e-07      -5.83971859e-07 
       5.91463634e-08       3.05295843e-07      -5.79466622e-07 
      -1.86570968e-08       3.00790584e-07      -5.79466601e-07 
      -5.91883558e-08       3.00790578e-07      -5.83971838e-07 
       1.86151041e-08       3.05295837e-07      -5.83971859e-07 
       5.91463629e-08       3.05295843e-07      -5.79466622e-07 
      -1.93803316e-08       3.29468479e-07      -6.34602761e-07 
      -6.14834228e-08       3.29468473e-07      -6.39295716e-07 
       1.93373122e-08       3.34161452e-07      -6.39295739e-07 
       6.14404034e-08       3.34161459e-07      -6.34602783e-07 
      -1.93803316e-08       3.29468479e-07      -6.34602761e-07 
      -6.14834228e-08       3.29468473e-07      -6.39295716e-07 
       1.93373122e-08       3.34161452e-07      -6.39295739e-07 
       6.14404034e-08       3.34161459e-07      -6.34602783e-07 
      -2.00863832e-08       3.59227845e-07      -6.91814903e-07 
      -6.37239315e-08       3.59227838e-07      -6.96695577e-07 
       2.00423336e-08       3.64108538e-07      -6.96695602e-07 
       6.36798818e-08       3.64108545e-07      -6.91814927e-07 
      -2.00863832e-08       3.59227845e-07      -6.91814903e-07 
      -6.37239315e-08       3.59227838e-07      -6.96695577e-07 
       2.00423336e-08       3.64108538e-07      -6.96695602e-07 
       6.36798818e-08       3.64108545e-07      -6.91814927e-07 
      -2.07752509e-08       3.90042657e-07      -7.51053070e-07 
      -6.59098811e-08       3.90042650e-07      -7.56121464e-07 
       2.07301687e-08       3.95111070e-07      -7.56121490e-07 
       6.58647989e-08       3.95111077e-07      -7.51053097e-07 
      -2.07752509e-08       3.90042657e-07      -7.51053070e-07 
      -6.59098811e-08       3.90042650e-07      -7.56121464e-07 
       2.07301687e-08       3.95111070e-07      -7.56121490e-07 
       6.58647989e-08       3.95111077e-07      -7.51053097e-07 
      -2.14469362e-08       4.21886890e-07      -8.12267307e-07 
      -6.80412731e-08       4.21886883e-07      -8.17523419e-07 
       2.14008171e-08       4.27143024e-07      -8.17523447e-07 
       6.79951540e-08       4.27143032e-07      -8.12267335e-07 
      -2.14469362e-08       4.21886890e-07      -8.12267307e-07 
      -6.80412731e-08       4.21886883e-07      -8.17523419e-07 
       2.14008171e-08       4.27143024e-07      -8.17523447e-07 
       6.79951540e-08       4.27143032e-07      -8.12267335e-07 
      -2.21014376e-08       4.54734521e-07      -8.75407655e-07 
      -7.01181060e-08       4.54734513e-07      -8.80851486e-07 
       2.20542788e-08       4.60178374e-07      -8.80851516e-07 
       7.00709473e-08       4.60178383e-07      -8.75407685e-07 
      -2.21014376e-08       4.54734521e-07      -8.75407655e-07 
      -7.01181060e-08       4.54734513e-07      -8.80851486e-07 
       2.20542788e-08       4.60178374e-07      -8.80851516e-07 
       7.00709473e-08       4.60178383e-07      -8.75407685e-07 
      -2.27387562e-08       4.88559523e-07      -9.40424158e-07 
      -7.21403808e-08       4.88559515e-07      -9.46055708e-07 
       2.26905543e-08       4.94191097e-07      -9.46055739e-07 
       7.20921789e-08       4.94191106e-07      -9.40424190e-07 
      -2.27387562e-08       4.88559523e-07      -9.40424158e-07 
      -7.21403808e-08       4.88559515e-07      -9.46055708e-07 
       2.26905543e-08       4.94191097e-07      -9.46055739e-07 
       7.20921789e-08       4.94191106e-07      -9.40424190e-07 
      -2.33588904e-08       5.23335873e-07      -1.00726686e-06 
      -7.41080970e-08       5.23335864e-07      -1.01308613e-06 
       2.33096431e-08       5.29155167e-07      -1.01308616e-06 
       7.40588493e-08       5.29155176e-07      -1.00726689e-06 
      -2.33588904e-08       5.23335873e-07      -1.00726686e-06 
      -7.41080970e-08       5.23335864e-07      -1.01308613e-06 
       2.33096431e-08       5.29155167e-07      -1.01308616e-06 
       7.40588493e-08       5.29155176e-07      -1.00726689e-06 
      -2.39618414e-08       5.59037546e-07      -1.07588580e-06 
      -7.60212542e-08       5.59037536e-07      -1.08189279e-06 
       2.39115456e-08       5.65044560e-07      -1.08189283e-06 
       7.59709584e-08       5.65044569e-07      -1.07588584e-06 
      -2.39618414e-08       5.59037546e-07      -1.07588580e-06 
      -7.60212542e-08       5.59037536e-07      -1.08189279e-06 
       2.39115456e-08       5.65044560e-07      -1.08189283e-06 
       7.59709584e-08       5.65044569e-07      -1.07588584e-06 
      -2.45476088e-08       5.95638516e-07      -1.14623103e-06 
      -7.78798528e-08       5.95638506e-07      -1.15242574e-06 
       2.44962624e-08       6.01833250e-07      -1.15242577e-06 
       7.78285059e-08       6.01833260e-07      -1.14623107e-06 
      -2.45476088e-08       5.95638516e-07      -1.14623103e-06 
      -7.78798528e-08       5.95638506e-07      -1.15242574e-06 
       2.44962624e-08       6.01833250e-07      -1.15242577e-06 
       7.78285059e-08       6.01833260e-07      -1.14623107e-06 
      -2.51161931e-08       6.33112760e-07      -1.21825259e-06 
      -7.96838933e-08       6.33112750e-07      -1.22463501e-06 
       2.50637919e-08       6.39495215e-07      -1.22463505e-06 
       7.96314916e-08       6.39495225e-07      -1.21825262e-06 
      -2.51161936e-08       6.33112760e-07      -1.21825259e-06 
      -7.96838933e-08       6.33112750e-07      -1.22463501e-06 
       2.50637919e-08       6.39495215e-07      -1.22463505e-06 
       7.96314916e-08       6.39495225e-07      -1.21825262e-06 
      -2.56685246e-08       6.71447346e-07      -1.29191414e-06 
      -8.14367969e-08       6.71447335e-07      -1.29845925e-06 
       2.56154959e-08       6.77992491e-07      -1.29845929e-06 
       8.13837682e-08       6.77992502e-07      -1.29191418e-06 
      -2.56685246e-08       6.71447346e-07      -1.29191414e-06 
      -8.14367969e-08       6.71447335e-07      -1.29845925e-06 
       2.56154959e-08       6.77992491e-07      -1.29845929e-06 
       8.13837682e-08       6.77992502e-07      -1.29191418e-06 
      -2.62059641e-08       7.10606625e-07      -1.36715876e-06 
      -8.31424170e-08       7.10606614e-07      -1.37386657e-06 
       2.61523048e-08       7.17314461e-07      -1.37386661e-06 
       8.30887577e-08       7.17314473e-07      -1.36715881e-06 
      -2.62059641e-08       7.10606625e-07      -1.36715876e-06 
      -8.31424170e-08       7.10606614e-07      -1.37386657e-06 
       2.61523048e-08       7.17314461e-07      -1.37386661e-06 
       8.30887577e-08       7.17314473e-07      -1.36715881e-06 
      -2.67285110e-08       7.50568043e-07      -1.44394317e-06 
      -8.48007526e-08       7.50568032e-07      -1.45081366e-06 
       2.66742188e-08       7.57438571e-07      -1.45081371e-06 
       8.47464605e-08       7.57438583e-07      -1.44394321e-06 
      -2.67285110e-08       7.50568043e-07      -1.44394317e-06 
      -8.48007526e-08       7.50568032e-07      -1.45081366e-06 
       2.66742188e-08       7.57438571e-07      -1.45081371e-06 
       8.47464605e-08       7.57438583e-07      -1.44394321e-06 
      -2.72361662e-08       7.91309046e-07      -1.52222406e-06 
      -8.64118048e-08       7.91309034e-07      -1.52925724e-06 
       2.71812377e-08       7.98342265e-07      -1.52925729e-06 
       8.63568763e-08       7.98342277e-07      -1.52222410e-06 
      -2.72361662e-08       7.91309046e-07      -1.52222406e-06 
      -8.64118048e-08       7.91309034e-07      -1.52925724e-06 
       2.71812377e-08       7.98342265e-07      -1.52925729e-06 
       8.63568763e-08       7.98342277e-07      -1.52222410e-06 
      -2.77289294e-08       8.32807079e-07      -1.60195813e-06 
      -8.79755735e-08       8.32807066e-07      -1.60915401e-06 
       2.76733609e-08       8.40002988e-07      -1.60915406e-06 
       8.79200055e-08       8.40003001e-07      -1.60195818e-06 
      -2.77289294e-08       8.32807079e-07      -1.60195813e-06 
      -8.79755735e-08       8.32807066e-07      -1.60915401e-06 
       2.76733609e-08       8.40002988e-07      -1.60915406e-06 
       8.79200055e-08       8.40003001e-07      -1.60195818e-06 
      -2.82068000e-08       8.75039586e-07      -1.68310210e-06 
      -8.94920582e-08       8.75039573e-07      -1.69046067e-06 
       2.81505894e-08       8.82398187e-07      -1.69046071e-06 
       8.94358472e-08       8.82398200e-07      -1.68310215e-06 
      -2.82068000e-08       8.75039586e-07      -1.68310210e-06 
      -8.94920582e-08       8.75039573e-07      -1.69046067e-06 
       2.81505894e-08       8.82398187e-07      -1.69046071e-06 
       8.94358472e-08       8.82398200e-07      -1.68310215e-06 
      -2.86697786e-08       9.17984013e-07      -1.76561267e-06 
      -9.09612585e-08       9.17984000e-07      -1.77313392e-06 
       2.86129227e-08       9.25505305e-07      -1.77313397e-06 
       9.09044027e-08       9.25505319e-07      -1.76561272e-06 
      -2.86697786e-08       9.17984013e-07      -1.76561267e-06 
      -9.09612585e-08       9.17984000e-07      -1.77313392e-06 
       2.86129227e-08       9.25505305e-07      -1.77313397e-06 
       9.09044027e-08       9.25505319e-07      -1.76561272e-06 
      -2.91178646e-08       9.61617806e-07      -1.84944653e-06 
      -9.23831744e-08       9.61617792e-07      -1.85713047e-06 
       2.90603617e-08       9.69301789e-07      -1.85713052e-06 
       9.23256716e-08       9.69301803e-07      -1.84944658e-06 
      -2.91178646e-08       9.61617806e-07      -1.84944653e-06 
      -9.23831744e-08       9.61617792e-07      -1.85713047e-06 