# vtk DataFile Version 2.0
./output/onsasExample_nonLinearCantileverBlade_staitc3D_pitch numElements=10/onsasExample_nonLinearCantileverBlade_staitc3D_pitch numElements=10_0023.vtk
ASCII
DATASET UNSTRUCTURED_GRID

POINTS 800 float
      -2.889959e-24      -7.180703e-02      -7.180703e-02 
      -4.815875e-24       7.180703e-02      -7.180703e-02 
       2.889959e-24       7.180703e-02       7.180703e-02 
       4.815875e-24      -7.180703e-02       7.180703e-02 
       1.000000e-01      -7.180703e-02      -7.180703e-02 
       1.000000e-01       7.180703e-02      -7.180703e-02 
       1.000000e-01       7.180703e-02       7.180703e-02 
       1.000000e-01      -7.180703e-02       7.180703e-02 
       1.000000e-01      -7.180703e-02      -7.180703e-02 
       1.000000e-01       7.180703e-02      -7.180703e-02 
       1.000000e-01       7.180703e-02       7.180703e-02 
       1.000000e-01      -7.180703e-02       7.180703e-02 
       2.000000e-01      -7.180703e-02      -7.180703e-02 
       2.000000e-01       7.180703e-02      -7.180703e-02 
       2.000000e-01       7.180703e-02       7.180704e-02 
       2.000000e-01      -7.180703e-02       7.180704e-02 
       2.000000e-01      -7.180703e-02      -7.180703e-02 
       2.000000e-01       7.180703e-02      -7.180703e-02 
       2.000000e-01       7.180703e-02       7.180704e-02 
       2.000000e-01      -7.180703e-02       7.180704e-02 
       3.000000e-01      -7.180703e-02      -7.180702e-02 
       3.000000e-01       7.180704e-02      -7.180702e-02 
       3.000000e-01       7.180704e-02       7.180705e-02 
       3.000000e-01      -7.180703e-02       7.180705e-02 
       3.000000e-01      -7.180703e-02      -7.180702e-02 
       3.000000e-01       7.180704e-02      -7.180702e-02 
       3.000000e-01       7.180704e-02       7.180705e-02 
       3.000000e-01      -7.180703e-02       7.180705e-02 
       4.000000e-01      -7.180703e-02      -7.180701e-02 
       4.000000e-01       7.180704e-02      -7.180701e-02 
       4.000000e-01       7.180704e-02       7.180706e-02 
       4.000000e-01      -7.180703e-02       7.180706e-02 
       4.000000e-01      -7.180703e-02      -7.180701e-02 
       4.000000e-01       7.180704e-02      -7.180701e-02 
       4.000000e-01       7.180704e-02       7.180706e-02 
       4.000000e-01      -7.180703e-02       7.180706e-02 
       5.000000e-01      -7.180702e-02      -7.180700e-02 
       5.000000e-01       7.180704e-02      -7.180700e-02 
       5.000000e-01       7.180704e-02       7.180707e-02 
       5.000000e-01      -7.180702e-02       7.180707e-02 
       5.000000e-01      -7.180702e-02      -7.180700e-02 
       5.000000e-01       7.180704e-02      -7.180700e-02 
       5.000000e-01       7.180704e-02       7.180707e-02 
       5.000000e-01      -7.180702e-02       7.180707e-02 
       6.000000e-01      -7.180702e-02      -7.180698e-02 
       6.000000e-01       7.180705e-02      -7.180698e-02 
       6.000000e-01       7.180705e-02       7.180709e-02 
       6.000000e-01      -7.180702e-02       7.180709e-02 
       6.000000e-01      -7.180702e-02      -7.180698e-02 
       6.000000e-01       7.180705e-02      -7.180698e-02 
       6.000000e-01       7.180705e-02       7.180709e-02 
       6.000000e-01      -7.180702e-02       7.180709e-02 
       7.000000e-01      -7.180702e-02      -7.180696e-02 
       7.000000e-01       7.180705e-02      -7.180696e-02 
       7.000000e-01       7.180705e-02       7.180711e-02 
       7.000000e-01      -7.180702e-02       7.180711e-02 
       7.000000e-01      -7.180702e-02      -7.180696e-02 
       7.000000e-01       7.180705e-02      -7.180696e-02 
       7.000000e-01       7.180705e-02       7.180711e-02 
       7.000000e-01      -7.180702e-02       7.180711e-02 
       8.000000e-01      -7.180701e-02      -7.180694e-02 
       8.000000e-01       7.180705e-02      -7.180694e-02 
       8.000000e-01       7.180706e-02       7.180713e-02 
       8.000000e-01      -7.180701e-02       7.180713e-02 
       8.000000e-01      -7.180701e-02      -7.180694e-02 
       8.000000e-01       7.180705e-02      -7.180694e-02 
       8.000000e-01       7.180706e-02       7.180713e-02 
       8.000000e-01      -7.180701e-02       7.180713e-02 
       9.000000e-01      -7.180701e-02      -7.180691e-02 
       9.000000e-01       7.180706e-02      -7.180691e-02 
       9.000000e-01       7.180706e-02       7.180715e-02 
       9.000000e-01      -7.180701e-02       7.180715e-02 
       9.000000e-01      -7.180701e-02      -7.180691e-02 
       9.000000e-01       7.180706e-02      -7.180691e-02 
       9.000000e-01       7.180706e-02       7.180715e-02 
       9.000000e-01      -7.180701e-02       7.180715e-02 
       1.000000e+00      -7.180700e-02      -7.180689e-02 
       1.000000e+00       7.180707e-02      -7.180689e-02 
       1.000000e+00       7.180707e-02       7.180718e-02 
       1.000000e+00      -7.180700e-02       7.180718e-02 
       1.000000e+00      -7.180700e-02      -7.180689e-02 
       1.000000e+00       7.180707e-02      -7.180689e-02 
       1.000000e+00       7.180707e-02       7.180718e-02 
       1.000000e+00      -7.180700e-02       7.180718e-02 
       1.100000e+00      -7.180699e-02      -7.180686e-02 
       1.100000e+00       7.180707e-02      -7.180686e-02 
       1.100000e+00       7.180707e-02       7.180721e-02 
       1.100000e+00      -7.180699e-02       7.180721e-02 
       1.100000e+00      -7.180699e-02      -7.180686e-02 
       1.100000e+00       7.180707e-02      -7.180686e-02 
       1.100000e+00       7.180707e-02       7.180721e-02 
       1.100000e+00      -7.180699e-02       7.180721e-02 
       1.200000e+00      -7.180699e-02      -7.180682e-02 
       1.200000e+00       7.180708e-02      -7.180683e-02 
       1.200000e+00       7.180708e-02       7.180724e-02 
       1.200000e+00      -7.180698e-02       7.180724e-02 
       1.200000e+00      -7.180699e-02      -7.180682e-02 
       1.200000e+00       7.180708e-02      -7.180683e-02 
       1.200000e+00       7.180708e-02       7.180724e-02 
       1.200000e+00      -7.180698e-02       7.180724e-02 
       1.300000e+00      -7.180698e-02      -7.180679e-02 
       1.300000e+00       7.180709e-02      -7.180679e-02 
       1.300000e+00       7.180709e-02       7.180727e-02 
       1.300000e+00      -7.180698e-02       7.180728e-02 
       1.300000e+00      -7.180698e-02      -7.180679e-02 
       1.300000e+00       7.180709e-02      -7.180679e-02 
       1.300000e+00       7.180709e-02       7.180727e-02 
       1.300000e+00      -7.180698e-02       7.180728e-02 
       1.400000e+00      -7.180697e-02      -7.180675e-02 
       1.400000e+00       7.180710e-02      -7.180675e-02 
       1.400000e+00       7.180710e-02       7.180731e-02 
       1.400000e+00      -7.180697e-02       7.180731e-02 
       1.400000e+00      -7.180697e-02      -7.180675e-02 
       1.400000e+00       7.180710e-02      -7.180675e-02 
       1.400000e+00       7.180710e-02       7.180731e-02 
       1.400000e+00      -7.180697e-02       7.180731e-02 
       1.500000e+00      -7.180696e-02      -7.180671e-02 
       1.500000e+00       7.180711e-02      -7.180672e-02 
       1.500000e+00       7.180711e-02       7.180735e-02 
       1.500000e+00      -7.180696e-02       7.180735e-02 
       1.500000e+00      -7.180696e-02      -7.180671e-02 
       1.500000e+00       7.180711e-02      -7.180672e-02 
       1.500000e+00       7.180711e-02       7.180735e-02 
       1.500000e+00      -7.180696e-02       7.180735e-02 
       1.600000e+00      -7.180695e-02      -7.180667e-02 
       1.600000e+00       7.180711e-02      -7.180667e-02 
       1.600000e+00       7.180712e-02       7.180739e-02 
       1.600000e+00      -7.180695e-02       7.180739e-02 
       1.600000e+00      -7.180695e-02      -7.180667e-02 
       1.600000e+00       7.180711e-02      -7.180667e-02 
       1.600000e+00       7.180712e-02       7.180739e-02 
       1.600000e+00      -7.180695e-02       7.180739e-02 
       1.700000e+00      -7.180694e-02      -7.180663e-02 
       1.700000e+00       7.180712e-02      -7.180663e-02 
       1.700000e+00       7.180713e-02       7.180743e-02 
       1.700000e+00      -7.180694e-02       7.180744e-02 
       1.700000e+00      -7.180694e-02      -7.180663e-02 
       1.700000e+00       7.180712e-02      -7.180663e-02 
       1.700000e+00       7.180713e-02       7.180743e-02 
       1.700000e+00      -7.180694e-02       7.180744e-02 
       1.800000e+00      -7.180693e-02      -7.180658e-02 
       1.800000e+00       7.180714e-02      -7.180659e-02 
       1.800000e+00       7.180714e-02       7.180748e-02 
       1.800000e+00      -7.180693e-02       7.180748e-02 
       1.800000e+00      -7.180693e-02      -7.180658e-02 
       1.800000e+00       7.180714e-02      -7.180659e-02 
       1.800000e+00       7.180714e-02       7.180748e-02 
       1.800000e+00      -7.180693e-02       7.180748e-02 
       1.900000e+00      -7.180692e-02      -7.180654e-02 
       1.900000e+00       7.180715e-02      -7.180654e-02 
       1.900000e+00       7.180715e-02       7.180753e-02 
       1.900000e+00      -7.180692e-02       7.180753e-02 
       1.900000e+00      -7.180692e-02      -7.180654e-02 
       1.900000e+00       7.180715e-02      -7.180654e-02 
       1.900000e+00       7.180715e-02       7.180753e-02 
       1.900000e+00      -7.180692e-02       7.180753e-02 
       2.000000e+00      -7.180691e-02      -7.180649e-02 
       2.000000e+00       7.180716e-02      -7.180649e-02 
       2.000000e+00       7.180716e-02       7.180758e-02 
       2.000000e+00      -7.180691e-02       7.180758e-02 
       2.000000e+00      -7.180691e-02      -7.180649e-02 
       2.000000e+00       7.180716e-02      -7.180649e-02 
       2.000000e+00       7.180716e-02       7.180758e-02 
       2.000000e+00      -7.180691e-02       7.180758e-02 
       2.100000e+00      -7.180690e-02      -7.180643e-02 
[...]
POINT_DATA       800 
VECTORS Displacements float
      -2.88995866e-24       0.00000000e+00       0.00000000e+00 
      -4.81587524e-24       1.38777878e-17       0.00000000e+00 
       2.88995866e-24       0.00000000e+00       0.00000000e+00 
       4.81587524e-24      -1.38777878e-17       0.00000000e+00 
       2.72759280e-09       3.09950052e-10       1.59564474e-09 
       1.71025959e-09       3.09950052e-10       1.50489639e-09 
      -2.72833921e-09       4.00698377e-10       1.50489632e-09 
      -1.71100599e-09       4.00698363e-10       1.59564467e-09 
       2.72759280e-09       3.09950052e-10       1.59564474e-09 
       1.71025959e-09       3.09950052e-10       1.50489639e-09 
      -2.72833921e-09       4.00698377e-10       1.50489632e-09 
      -1.71100599e-09       4.00698363e-10       1.59564467e-09 
       5.40276845e-09       1.32147443e-09       6.25224038e-09 
       3.38764963e-09       1.32147443e-09       6.07074360e-09 
      -5.40426220e-09       1.50297108e-09       6.07074334e-09 
      -3.38914338e-09       1.50297108e-09       6.25224011e-09 
       5.40276845e-09       1.32147443e-09       6.25224038e-09 
       3.38764963e-09       1.32147443e-09       6.07074360e-09 
      -5.40426220e-09       1.50297108e-09       6.07074334e-09 
      -3.38914338e-09       1.50297108e-09       6.25224011e-09 
       8.02552691e-09       3.02096198e-09       1.39104015e-08 
       5.03217018e-09       3.02096195e-09       1.36381563e-08 
      -8.02776901e-09       3.29320687e-09       1.36381557e-08 
      -5.03441228e-09       3.29320690e-09       1.39104009e-08 
       8.02552691e-09       3.02096198e-09       1.39104015e-08 
       5.03217018e-09       3.02096195e-09       1.36381563e-08 
      -8.02776901e-09       3.29320687e-09       1.36381557e-08 
      -5.03441228e-09       3.29320690e-09       1.39104009e-08 
       1.05958683e-08       5.39480141e-09       2.45107429e-08 
       6.64382122e-09       5.39480137e-09       2.41477492e-08 
      -1.05988596e-08       5.75779456e-09       2.41477482e-08 
      -6.64681243e-09       5.75779460e-09       2.45107418e-08 
       1.05958683e-08       5.39480141e-09       2.45107429e-08 
       6.64382122e-09       5.39480137e-09       2.41477492e-08 
      -1.05988596e-08       5.75779456e-09       2.41477482e-08 
      -6.64681243e-09       5.75779460e-09       2.45107418e-08 
       1.31137926e-08       8.42938160e-09       3.79938790e-08 
       8.22260282e-09       8.42938153e-09       3.75401369e-08 
      -1.31175339e-08       8.88312292e-09       3.75401353e-08 
      -8.22634399e-09       8.88312299e-09       3.79938774e-08 
       1.31137926e-08       8.42938160e-09       3.79938790e-08 
       8.22260282e-09       8.42938153e-09       3.75401369e-08 
      -1.31175339e-08       8.88312292e-09       3.75401353e-08 
      -8.22634399e-09       8.88312299e-09       3.79938774e-08 
       1.55792997e-08       1.21110912e-08       5.43004246e-08 
       9.76851466e-09       1.21110911e-08       5.37559339e-08 
      -1.55837921e-08       1.26555808e-08       5.37559317e-08 
      -9.77300707e-09       1.26555809e-08       5.43004223e-08 
       1.55792997e-08       1.21110912e-08       5.43004246e-08 
       9.76851466e-09       1.21110911e-08       5.37559339e-08 
      -1.55837921e-08       1.26555808e-08       5.37559317e-08 
      -9.77300707e-09       1.26555809e-08       5.43004223e-08 
       1.79923899e-08       1.64263192e-08       7.33709942e-08 
       1.12815575e-08       1.64263191e-08       7.27357551e-08 
      -1.79976338e-08       1.70615569e-08       7.27357521e-08 
      -1.12868014e-08       1.70615570e-08       7.33709913e-08 
       1.79923899e-08       1.64263192e-08       7.33709942e-08 
       1.12815575e-08       1.64263191e-08       7.27357551e-08 
      -1.79976338e-08       1.70615569e-08       7.27357521e-08 
      -1.12868014e-08       1.70615570e-08       7.33709913e-08 
       2.03530629e-08       2.13614542e-08       9.51462026e-08 
       1.27617303e-08       2.13614541e-08       9.44202149e-08 
      -2.03590595e-08       2.20874400e-08       9.44202111e-08 
      -1.27677270e-08       2.20874402e-08       9.51461988e-08 
       2.03530629e-08       2.13614542e-08       9.51462026e-08 
       1.27617303e-08       2.13614541e-08       9.44202149e-08 
      -2.03590595e-08       2.20874400e-08       9.44202111e-08 
      -1.27677270e-08       2.20874402e-08       9.51461988e-08 
       2.26613189e-08       2.69028852e-08       1.19566664e-07 
       1.42090342e-08       2.69028849e-08       1.18749928e-07 
      -2.26680689e-08       2.77196190e-08       1.18749923e-07 
      -1.42157840e-08       2.77196193e-08       1.19566660e-07 
       2.26613189e-08       2.69028852e-08       1.19566664e-07 
       1.42090342e-08       2.69028849e-08       1.18749928e-07 
      -2.26680689e-08       2.77196190e-08       1.18749923e-07 
      -1.42157840e-08       2.77196193e-08       1.19566660e-07 
       2.49171577e-08       3.30370007e-08       1.46572994e-07 
       1.56234683e-08       3.30370004e-08       1.45665509e-07 
      -2.49246619e-08       3.39444826e-08       1.45665503e-07 
      -1.56309725e-08       3.39444829e-08       1.46572988e-07 
       2.49171577e-08       3.30370007e-08       1.46572994e-07 
       1.56234683e-08       3.30370004e-08       1.45665509e-07 
      -2.49246619e-08       3.39444826e-08       1.45665503e-07 
      -1.56309725e-08       3.39444829e-08       1.46572988e-07 
       2.71234719e-08       3.97552049e-08       1.76102072e-07 
       1.70068966e-08       3.97552046e-08       1.75113391e-07 
      -2.71314640e-08       4.07438821e-08       1.75113384e-07 
      -1.70148886e-08       4.07438824e-08       1.76102065e-07 
       2.71234719e-08       3.97552049e-08       1.76102072e-07 
       1.70068966e-08       3.97552046e-08       1.75113391e-07 
      -2.71314640e-08       4.07438821e-08       1.75113384e-07 
      -1.70148886e-08       4.07438824e-08       1.76102065e-07 
       2.92828861e-08       4.70403041e-08       2.08104498e-07 
       1.83609148e-08       4.70403037e-08       2.07034622e-07 
      -2.92913678e-08       4.81101765e-08       2.07034614e-07 
      -1.83693964e-08       4.81101769e-08       2.08104490e-07 
       2.92828861e-08       4.70403041e-08       2.08104498e-07 
       1.83609148e-08       4.70403037e-08       2.07034622e-07 
      -2.92913678e-08       4.81101765e-08       2.07034614e-07 
      -1.83693964e-08       4.81101769e-08       2.08104490e-07 
       3.13953998e-08       5.48801199e-08       2.42527138e-07 
       1.96855228e-08       5.48801194e-08       2.41376066e-07 
      -3.14043735e-08       5.60311875e-08       2.41376057e-07 
      -1.96944965e-08       5.60311880e-08       2.42527129e-07 
       3.13953998e-08       5.48801199e-08       2.42527138e-07 
       1.96855228e-08       5.48801194e-08       2.41376066e-07 
      -3.14043735e-08       5.60311875e-08       2.41376057e-07 
      -1.96944965e-08       5.60311880e-08       2.42527129e-07 
       3.34610137e-08       6.32624738e-08       2.79316859e-07 
       2.09807207e-08       6.32624732e-08       2.78084591e-07 
      -3.34704811e-08       6.44947366e-08       2.78084580e-07 
      -2.09901878e-08       6.44947371e-08       2.79316848e-07 
       3.34610137e-08       6.32624738e-08       2.79316859e-07 
       2.09807207e-08       6.32624732e-08       2.78084591e-07 
      -3.34704811e-08       6.44947366e-08       2.78084580e-07 
      -2.09901878e-08       6.44947371e-08       2.79316848e-07 
       3.54797274e-08       7.21751873e-08       3.18420524e-07 
       2.22465082e-08       7.21751867e-08       3.17107060e-07 
      -3.54896905e-08       7.34886452e-08       3.17107049e-07 
      -2.22564713e-08       7.34886458e-08       3.18420513e-07 
       3.54797274e-08       7.21751873e-08       3.18420524e-07 
       2.22465082e-08       7.21751867e-08       3.17107060e-07 
      -3.54896905e-08       7.34886452e-08       3.17107049e-07 
      -2.22564713e-08       7.34886458e-08       3.18420513e-07 
       3.74515410e-08       8.16060820e-08       3.59785001e-07 
       2.34828859e-08       8.16060813e-08       3.58390342e-07 
      -3.74620019e-08       8.30007351e-08       3.58390329e-07 
      -2.34933468e-08       8.30007358e-08       3.59784988e-07 
       3.74515410e-08       8.16060820e-08       3.59785001e-07 
       2.34828859e-08       8.16060813e-08       3.58390342e-07 
      -3.74620019e-08       8.30007351e-08       3.58390329e-07 
      -2.34933468e-08       8.30007358e-08       3.59784988e-07 
       3.93764543e-08       9.15429795e-08       4.03357155e-07 
       2.46898533e-08       9.15429787e-08       4.01881300e-07 
      -3.93874149e-08       9.30188277e-08       4.01881285e-07 
      -2.47008136e-08       9.30188285e-08       4.03357141e-07 
       3.93764543e-08       9.15429795e-08       4.03357155e-07 
       2.46898533e-08       9.15429787e-08       4.01881300e-07 
      -3.93874149e-08       9.30188277e-08       4.01881285e-07 
      -2.47008136e-08       9.30188285e-08       4.03357141e-07 
       4.12544681e-08       1.01973701e-07       4.49083852e-07 
       2.58674107e-08       1.01973700e-07       4.47526801e-07 
      -4.12659296e-08       1.03530745e-07       4.47526785e-07 
      -2.58788724e-08       1.03530745e-07       4.49083836e-07 
       4.12544681e-08       1.01973701e-07       4.49083852e-07 
       2.58674107e-08       1.01973700e-07       4.47526801e-07 
      -4.12659296e-08       1.03530745e-07       4.47526785e-07 
      -2.58788724e-08       1.03530745e-07       4.49083836e-07 
       4.30855815e-08       1.12886069e-07       4.96911957e-07 
       2.70155582e-08       1.12886068e-07       4.95273710e-07 
      -4.30975464e-08       1.14524307e-07       4.95273693e-07 
      -2.70275229e-08       1.14524308e-07       4.96911940e-07 
       4.30855815e-08       1.12886069e-07       4.96911957e-07 
       2.70155582e-08       1.12886068e-07       4.95273710e-07 
      -4.30975464e-08       1.14524307e-07       4.95273693e-07 
      -2.70275229e-08       1.14524308e-07       4.96911940e-07 
       4.48697950e-08       1.24267904e-07       5.46788337e-07 
       2.81342958e-08       1.24267903e-07       5.45068894e-07 
      -4.48822650e-08       1.25987337e-07       5.45068875e-07 
      -2.81467654e-08       1.25987338e-07       5.46788318e-07 
       4.48697950e-08       1.24267904e-07       5.46788337e-07 
       2.81342953e-08       1.24267903e-07       5.45068894e-07 
      -4.48822650e-08       1.25987337e-07       5.45068875e-07 
      -2.81467654e-08       1.25987338e-07       5.46788318e-07 
       4.66099612e-08       1.36112043e-07       5.98656122e-07 
       2.92254465e-08       1.36112042e-07       5.96865035e-07 
      -4.66227497e-08       1.37903119e-07       5.96865015e-07 
      -2.92382354e-08       1.37903120e-07       5.98656102e-07 
       4.66099612e-08       1.36112043e-07       5.98656122e-07 
       2.92254465e-08       1.36112042e-07       5.96865035e-07 
      -4.66227497e-08       1.37903119e-07       5.96865015e-07 
      -2.92382354e-08       1.37903120e-07       5.98656102e-07 
       4.83087446e-08       1.48402725e-07       6.52472164e-07 
       3.02906473e-08       1.48402724e-07       6.50609434e-07 
      -4.83218545e-08       1.50265444e-07       6.50609412e-07 
      -3.03037573e-08       1.50265445e-07       6.52472142e-07 
       4.83087446e-08       1.48402725e-07       6.52472164e-07 
       3.02906473e-08       1.48402724e-07       6.50609434e-07 
      -4.83218545e-08       1.50265444e-07       6.50609412e-07 
      -3.03037573e-08       1.50265445e-07       6.52472142e-07 
       4.99661454e-08       1.61129205e-07       7.08189579e-07 
       3.13298978e-08       1.61129204e-07       7.06255206e-07 
      -4.99795783e-08       1.63063566e-07       7.06255183e-07 
      -3.13433306e-08       1.63063567e-07       7.08189556e-07 
       4.99661454e-08       1.61129205e-07       7.08189579e-07 
       3.13298978e-08       1.61129204e-07       7.06255206e-07 
      -4.99795783e-08       1.63063566e-07       7.06255183e-07 
      -3.13433306e-08       1.63063567e-07       7.08189556e-07 
       5.15821634e-08       1.74280736e-07       7.65761484e-07 
       3.23431979e-08       1.74280735e-07       7.63755468e-07 
      -5.15959222e-08       1.76286740e-07       7.63755444e-07 
      -3.23569567e-08       1.76286741e-07       7.65761460e-07 
       5.15821634e-08       1.74280736e-07       7.65761484e-07 
       3.23431979e-08       1.74280735e-07       7.63755468e-07 
      -5.15959222e-08       1.76286740e-07       7.63755444e-07 
      -3.23569567e-08       1.76286741e-07       7.65761460e-07 
       5.31567985e-08       1.87846574e-07       8.25140997e-07 
       3.33305472e-08       1.87846573e-07       8.23063338e-07 
      -5.31708855e-08       1.89924220e-07       8.23063312e-07 
      -3.33446342e-08       1.89924222e-07       8.25140971e-07 
       5.31567985e-08       1.87846574e-07       8.25140997e-07 
       3.33305472e-08       1.87846573e-07       8.23063338e-07 
      -5.31708855e-08       1.89924220e-07       8.23063312e-07 
      -3.33446342e-08       1.89924222e-07       8.25140971e-07 
       5.46900507e-08       2.01815973e-07       8.86281234e-07 
       3.42919462e-08       2.01815971e-07       8.84131932e-07 
      -5.47044685e-08       2.03965261e-07       8.84131904e-07 
      -3.43063640e-08       2.03965263e-07       8.86281207e-07 
       5.46900507e-08       2.01815973e-07       8.86281234e-07 
       3.42919462e-08       2.01815971e-07       8.84131932e-07 
      -5.47044685e-08       2.03965261e-07       8.84131904e-07 
      -3.43063640e-08       2.03965263e-07       8.86281207e-07 
       5.61819204e-08       2.16178186e-07       9.49135312e-07 
       3.52273952e-08       2.16178184e-07       9.46914366e-07 
      -5.61966709e-08       2.18399117e-07       9.46914337e-07 
      -3.52421452e-08       2.18399118e-07       9.49135283e-07 
       5.61819204e-08       2.16178186e-07       9.49135312e-07 
       3.52273952e-08       2.16178184e-07       9.46914366e-07 
      -5.61966709e-08       2.18399117e-07       9.46914337e-07 
      -3.52421452e-08       2.18399118e-07       9.49135283e-07 
       5.76324082e-08       2.30922468e-07       1.01365635e-06 
       3.61368939e-08       2.30922466e-07       1.01136376e-06 
      -5.76474921e-08       2.33215041e-07       1.01136373e-06 
      -3.61519774e-08       2.33215043e-07       1.01365632e-06 
       5.76324082e-08       2.30922468e-07       1.01365635e-06 
       3.61368939e-08       2.30922466e-07       1.01136376e-06 
      -5.76474921e-08       2.33215041e-07       1.01136373e-06 
      -3.61519774e-08       2.33215043e-07       1.01365632e-06 
       5.90415130e-08       2.46038073e-07       1.07979746e-06 
       3.70204423e-08       2.46038072e-07       1.07743323e-06 
      -5.90569331e-08       2.48402289e-07       1.07743319e-06 
      -3.70358628e-08       2.48402291e-07       1.07979743e-06 
       5.90415130e-08       2.46038073e-07       1.07979746e-06 
       3.70204423e-08       2.46038072e-07       1.07743323e-06 
      -5.90569331e-08       2.48402289e-07       1.07743319e-06 
      -3.70358628e-08       2.48402291e-07       1.07979743e-06 
       6.04092349e-08       2.61514257e-07       1.14751176e-06 
       3.78780403e-08       2.61514255e-07       1.14507588e-06 
      -6.04249939e-08       2.63950115e-07       1.14507585e-06 
      -3.78937992e-08       2.63950117e-07       1.14751172e-06 
       6.04092349e-08       2.61514257e-07       1.14751176e-06 
       3.78780403e-08       2.61514255e-07       1.14507588e-06 
      -6.04249939e-08       2.63950115e-07       1.14507585e-06 
      -3.78937992e-08       2.63950117e-07       1.14751172e-06 
       6.17383962e-08       2.77345287e-07       1.21674863e-06 
       3.87114811e-08       2.77345285e-07       1.21425067e-06 
      -6.17543696e-08       2.79843235e-07       1.21425063e-06 
      -3.87274546e-08       2.79843237e-07       1.21674860e-06 
       6.17383962e-08       2.77345287e-07       1.21674863e-06 
       3.87114811e-08       2.77345285e-07       1.21425067e-06 
      -6.17543696e-08       2.79843235e-07       1.21425063e-06 
      -3.87274546e-08       2.79843237e-07       1.21674860e-06 
       6.30316923e-08       2.93516836e-07       1.28747118e-06 
       3.95224311e-08       2.93516835e-07       1.28491113e-06 
      -6.30478825e-08       2.96076875e-07       1.28491109e-06 
      -3.95386213e-08       2.96076877e-07       1.28747115e-06 
       6.30316923e-08       2.93516836e-07       1.28747118e-06 
       3.95224311e-08       2.93516835e-07       1.28491113e-06 
      -6.30478825e-08       2.96076875e-07       1.28491109e-06 
      -3.95386213e-08       2.96076877e-07       1.28747115e-06 
       6.42891238e-08       3.10019592e-07       1.35963878e-06 
       4.03108911e-08       3.10019590e-07       1.35701663e-06 
      -6.43055320e-08       3.12641720e-07       1.35701659e-06 
      -4.03272997e-08       3.12641722e-07       1.35963874e-06 
       6.42891238e-08       3.10019592e-07       1.35963878e-06 
       4.03108911e-08       3.10019590e-07       1.35701663e-06 
      -6.43055320e-08       3.12641720e-07       1.35701659e-06 
      -4.03272997e-08       3.12641722e-07       1.35963874e-06 
       6.55106893e-08       3.26844241e-07       1.43321079e-06 
       4.10768606e-08       3.26844239e-07       1.43052655e-06 
      -6.55273191e-08       3.29528459e-07       1.43052651e-06 
      -4.10934904e-08       3.29528461e-07       1.43321075e-06 
       6.55106893e-08       3.26844241e-07       1.43321079e-06 
       4.10768606e-08       3.26844239e-07       1.43052655e-06 
      -6.55273191e-08       3.29528459e-07       1.43052651e-06 
      -4.10934904e-08       3.29528461e-07       1.43321075e-06 
       6.66963897e-08       3.43981470e-07       1.50814657e-06 
       4.18203392e-08       3.43981468e-07       1.50540024e-06 
      -6.67132434e-08       3.46727778e-07       1.50540020e-06 
      -4.18371928e-08       3.46727780e-07       1.50814653e-06 
       6.66963897e-08       3.43981470e-07       1.50814657e-06 
       4.18203392e-08       3.43981468e-07       1.50540024e-06 
      -6.67132434e-08       3.46727778e-07       1.50540020e-06 
      -4.18371928e-08       3.46727780e-07       1.50814653e-06 
       6.78462255e-08       3.61421966e-07       1.58440551e-06 
       4.25413273e-08       3.61421964e-07       1.58159709e-06 
      -6.78633048e-08       3.64230364e-07       1.58159704e-06 
      -4.25584066e-08       3.64230367e-07       1.58440546e-06 
       6.78462255e-08       3.61421966e-07       1.58440551e-06 
       4.25413273e-08       3.61421964e-07       1.58159709e-06 
      -6.78633048e-08       3.64230364e-07       1.58159704e-06 
      -4.25584066e-08       3.64230367e-07       1.58440546e-06 
       6.89601958e-08       3.79156417e-07       1.66194696e-06 
       4.32398255e-08       3.79156415e-07       1.65907645e-06 
      -6.89775028e-08       3.82026905e-07       1.65907640e-06 
      -4.32571321e-08       3.82026907e-07       1.66194691e-06 
       6.89601958e-08       3.79156417e-07       1.66194696e-06 
       4.32398255e-08       3.79156415e-07       1.65907645e-06 
      -6.89775028e-08       3.82026905e-07       1.65907640e-06 
      -4.32571321e-08       3.82026907e-07       1.66194691e-06 
       7.00383018e-08       3.97175509e-07       1.74073029e-06 
       4.39158336e-08       3.97175507e-07       1.73779769e-06 
      -7.00558371e-08       4.00108087e-07       1.73779764e-06 
      -4.39333689e-08       4.00108090e-07       1.74073024e-06 
       7.00383018e-08       3.97175509e-07       1.74073029e-06 
       4.39158336e-08       3.97175507e-07       1.73779769e-06 