# vtk DataFile Version 2.0
./output/onsasExample_nonLinearCantileverBlade_staitc3D_pitch numElements=10/onsasExample_nonLinearCantileverBlade_staitc3D_pitch numElements=10_0014.vtk
ASCII
DATASET UNSTRUCTURED_GRID

POINTS 800 float
      -9.287149e-26      -7.180703e-02      -7.180703e-02 
      -1.443035e-24       7.180703e-02      -7.180703e-02 
       9.287149e-26       7.180703e-02       7.180703e-02 
       1.443035e-24      -7.180703e-02       7.180703e-02 
       1.000000e-01      -7.180703e-02      -7.180703e-02 
       1.000000e-01       7.180703e-02      -7.180703e-02 
       1.000000e-01       7.180703e-02       7.180704e-02 
       1.000000e-01      -7.180703e-02       7.180704e-02 
       1.000000e-01      -7.180703e-02      -7.180703e-02 
       1.000000e-01       7.180703e-02      -7.180703e-02 
       1.000000e-01       7.180703e-02       7.180704e-02 
       1.000000e-01      -7.180703e-02       7.180704e-02 
       2.000000e-01      -7.180703e-02      -7.180702e-02 
       2.000000e-01       7.180703e-02      -7.180702e-02 
       2.000000e-01       7.180703e-02       7.180704e-02 
       2.000000e-01      -7.180703e-02       7.180704e-02 
       2.000000e-01      -7.180703e-02      -7.180702e-02 
       2.000000e-01       7.180703e-02      -7.180702e-02 
       2.000000e-01       7.180703e-02       7.180704e-02 
       2.000000e-01      -7.180703e-02       7.180704e-02 
       3.000000e-01      -7.180703e-02      -7.180701e-02 
       3.000000e-01       7.180703e-02      -7.180701e-02 
       3.000000e-01       7.180703e-02       7.180705e-02 
       3.000000e-01      -7.180703e-02       7.180705e-02 
       3.000000e-01      -7.180703e-02      -7.180701e-02 
       3.000000e-01       7.180703e-02      -7.180701e-02 
       3.000000e-01       7.180703e-02       7.180705e-02 
       3.000000e-01      -7.180703e-02       7.180705e-02 
       4.000000e-01      -7.180703e-02      -7.180700e-02 
       4.000000e-01       7.180703e-02      -7.180700e-02 
       4.000000e-01       7.180703e-02       7.180707e-02 
       4.000000e-01      -7.180703e-02       7.180707e-02 
       4.000000e-01      -7.180703e-02      -7.180700e-02 
       4.000000e-01       7.180703e-02      -7.180700e-02 
       4.000000e-01       7.180703e-02       7.180707e-02 
       4.000000e-01      -7.180703e-02       7.180707e-02 
       5.000000e-01      -7.180703e-02      -7.180697e-02 
       5.000000e-01       7.180703e-02      -7.180697e-02 
       5.000000e-01       7.180703e-02       7.180709e-02 
       5.000000e-01      -7.180703e-02       7.180709e-02 
       5.000000e-01      -7.180703e-02      -7.180697e-02 
       5.000000e-01       7.180703e-02      -7.180697e-02 
       5.000000e-01       7.180703e-02       7.180709e-02 
       5.000000e-01      -7.180703e-02       7.180709e-02 
       6.000000e-01      -7.180703e-02      -7.180695e-02 
       6.000000e-01       7.180704e-02      -7.180695e-02 
       6.000000e-01       7.180704e-02       7.180712e-02 
       6.000000e-01      -7.180703e-02       7.180712e-02 
       6.000000e-01      -7.180703e-02      -7.180695e-02 
       6.000000e-01       7.180704e-02      -7.180695e-02 
       6.000000e-01       7.180704e-02       7.180712e-02 
       6.000000e-01      -7.180703e-02       7.180712e-02 
       7.000000e-01      -7.180703e-02      -7.180692e-02 
       7.000000e-01       7.180704e-02      -7.180692e-02 
       7.000000e-01       7.180704e-02       7.180715e-02 
       7.000000e-01      -7.180703e-02       7.180715e-02 
       7.000000e-01      -7.180703e-02      -7.180692e-02 
       7.000000e-01       7.180704e-02      -7.180692e-02 
       7.000000e-01       7.180704e-02       7.180715e-02 
       7.000000e-01      -7.180703e-02       7.180715e-02 
       8.000000e-01      -7.180703e-02      -7.180689e-02 
       8.000000e-01       7.180704e-02      -7.180689e-02 
       8.000000e-01       7.180704e-02       7.180718e-02 
       8.000000e-01      -7.180703e-02       7.180718e-02 
       8.000000e-01      -7.180703e-02      -7.180689e-02 
       8.000000e-01       7.180704e-02      -7.180689e-02 
       8.000000e-01       7.180704e-02       7.180718e-02 
       8.000000e-01      -7.180703e-02       7.180718e-02 
       9.000000e-01      -7.180703e-02      -7.180685e-02 
       9.000000e-01       7.180704e-02      -7.180685e-02 
       9.000000e-01       7.180704e-02       7.180722e-02 
       9.000000e-01      -7.180703e-02       7.180722e-02 
       9.000000e-01      -7.180703e-02      -7.180685e-02 
       9.000000e-01       7.180704e-02      -7.180685e-02 
       9.000000e-01       7.180704e-02       7.180722e-02 
       9.000000e-01      -7.180703e-02       7.180722e-02 
       1.000000e+00      -7.180703e-02      -7.180681e-02 
       1.000000e+00       7.180704e-02      -7.180681e-02 
       1.000000e+00       7.180704e-02       7.180726e-02 
       1.000000e+00      -7.180703e-02       7.180726e-02 
       1.000000e+00      -7.180703e-02      -7.180681e-02 
       1.000000e+00       7.180704e-02      -7.180681e-02 
       1.000000e+00       7.180704e-02       7.180726e-02 
       1.000000e+00      -7.180703e-02       7.180726e-02 
       1.100000e+00      -7.180703e-02      -7.180676e-02 
       1.100000e+00       7.180704e-02      -7.180676e-02 
       1.100000e+00       7.180704e-02       7.180731e-02 
       1.100000e+00      -7.180703e-02       7.180731e-02 
       1.100000e+00      -7.180703e-02      -7.180676e-02 
       1.100000e+00       7.180704e-02      -7.180676e-02 
       1.100000e+00       7.180704e-02       7.180731e-02 
       1.100000e+00      -7.180703e-02       7.180731e-02 
       1.200000e+00      -7.180703e-02      -7.180671e-02 
       1.200000e+00       7.180704e-02      -7.180671e-02 
       1.200000e+00       7.180704e-02       7.180736e-02 
       1.200000e+00      -7.180703e-02       7.180736e-02 
       1.200000e+00      -7.180703e-02      -7.180671e-02 
       1.200000e+00       7.180704e-02      -7.180671e-02 
       1.200000e+00       7.180704e-02       7.180736e-02 
       1.200000e+00      -7.180703e-02       7.180736e-02 
       1.300000e+00      -7.180702e-02      -7.180666e-02 
       1.300000e+00       7.180704e-02      -7.180666e-02 
       1.300000e+00       7.180704e-02       7.180741e-02 
       1.300000e+00      -7.180702e-02       7.180741e-02 
       1.300000e+00      -7.180702e-02      -7.180666e-02 
       1.300000e+00       7.180704e-02      -7.180666e-02 
       1.300000e+00       7.180704e-02       7.180741e-02 
       1.300000e+00      -7.180702e-02       7.180741e-02 
       1.400000e+00      -7.180702e-02      -7.180660e-02 
       1.400000e+00       7.180704e-02      -7.180660e-02 
       1.400000e+00       7.180704e-02       7.180747e-02 
       1.400000e+00      -7.180702e-02       7.180747e-02 
       1.400000e+00      -7.180702e-02      -7.180660e-02 
       1.400000e+00       7.180704e-02      -7.180660e-02 
       1.400000e+00       7.180704e-02       7.180747e-02 
       1.400000e+00      -7.180702e-02       7.180747e-02 
       1.500000e+00      -7.180702e-02      -7.180654e-02 
       1.500000e+00       7.180704e-02      -7.180654e-02 
       1.500000e+00       7.180704e-02       7.180753e-02 
       1.500000e+00      -7.180702e-02       7.180753e-02 
       1.500000e+00      -7.180702e-02      -7.180654e-02 
       1.500000e+00       7.180704e-02      -7.180654e-02 
       1.500000e+00       7.180704e-02       7.180753e-02 
       1.500000e+00      -7.180702e-02       7.180753e-02 
       1.600000e+00      -7.180702e-02      -7.180647e-02 
       1.600000e+00       7.180705e-02      -7.180647e-02 
       1.600000e+00       7.180705e-02       7.180759e-02 
       1.600000e+00      -7.180702e-02       7.180759e-02 
       1.600000e+00      -7.180702e-02      -7.180647e-02 
       1.600000e+00       7.180705e-02      -7.180647e-02 
       1.600000e+00       7.180705e-02       7.180759e-02 
       1.600000e+00      -7.180702e-02       7.180759e-02 
       1.700000e+00      -7.180702e-02      -7.180641e-02 
       1.700000e+00       7.180705e-02      -7.180641e-02 
       1.700000e+00       7.180705e-02       7.180766e-02 
       1.700000e+00      -7.180702e-02       7.180766e-02 
       1.700000e+00      -7.180702e-02      -7.180641e-02 
       1.700000e+00       7.180705e-02      -7.180641e-02 
       1.700000e+00       7.180705e-02       7.180766e-02 
       1.700000e+00      -7.180702e-02       7.180766e-02 
       1.800000e+00      -7.180702e-02      -7.180633e-02 
       1.800000e+00       7.180705e-02      -7.180633e-02 
       1.800000e+00       7.180705e-02       7.180773e-02 
       1.800000e+00      -7.180702e-02       7.180773e-02 
       1.800000e+00      -7.180702e-02      -7.180633e-02 
       1.800000e+00       7.180705e-02      -7.180633e-02 
       1.800000e+00       7.180705e-02       7.180773e-02 
       1.800000e+00      -7.180702e-02       7.180773e-02 
       1.900000e+00      -7.180701e-02      -7.180626e-02 
       1.900000e+00       7.180705e-02      -7.180626e-02 
       1.900000e+00       7.180705e-02       7.180781e-02 
       1.900000e+00      -7.180701e-02       7.180781e-02 
       1.900000e+00      -7.180701e-02      -7.180626e-02 
       1.900000e+00       7.180705e-02      -7.180626e-02 
       1.900000e+00       7.180705e-02       7.180781e-02 
       1.900000e+00      -7.180701e-02       7.180781e-02 
       2.000000e+00      -7.180701e-02      -7.180618e-02 
       2.000000e+00       7.180705e-02      -7.180618e-02 
       2.000000e+00       7.180705e-02       7.180788e-02 
       2.000000e+00      -7.180701e-02       7.180788e-02 
       2.000000e+00      -7.180701e-02      -7.180618e-02 
       2.000000e+00       7.180705e-02      -7.180618e-02 
       2.000000e+00       7.180705e-02       7.180788e-02 
       2.000000e+00      -7.180701e-02       7.180788e-02 
       2.100000e+00      -7.180701e-02      -7.180610e-02 
[...]
POINT_DATA       800 
VECTORS Displacements float
      -9.28714857e-26       0.00000000e+00       0.00000000e+00 
      -1.44303469e-24       1.38777878e-17       0.00000000e+00 
       9.28714857e-26       0.00000000e+00       0.00000000e+00 
       1.44303469e-24      -1.38777878e-17       0.00000000e+00 
       3.54331903e-09       5.26409888e-11       2.42284429e-09 
       3.37789388e-09       5.26410027e-11       2.41257012e-09 
      -3.54427343e-09       6.29151592e-11       2.41256996e-09 
      -3.37884828e-09       6.29151592e-11       2.42284413e-09 
       3.54331903e-09       5.26409888e-11       2.42284429e-09 
       3.37789388e-09       5.26410027e-11       2.41257012e-09 
      -3.54427343e-09       6.29151592e-11       2.41256996e-09 
      -3.37884828e-09       6.29151592e-11       2.42284413e-09 
       7.01854447e-09       2.19362667e-10       9.61936050e-09 
       6.69087274e-09       2.19362681e-10       9.59881218e-09 
      -7.02045547e-09       2.39910966e-10       9.59881151e-09 
      -6.69278374e-09       2.39910966e-10       9.61935984e-09 
       7.01854447e-09       2.19362667e-10       9.61936050e-09 
       6.69087274e-09       2.19362681e-10       9.59881218e-09 
      -7.02045547e-09       2.39910966e-10       9.59881151e-09 
      -6.69278374e-09       2.39910966e-10       9.61935984e-09 
       1.04256763e-08       4.97951708e-10       2.14969348e-08 
       9.93893662e-09       4.97951708e-10       2.14661123e-08 
      -1.04285461e-08       5.28774136e-10       2.14661109e-08 
      -9.94180638e-09       5.28774136e-10       2.14969334e-08 
       1.04256763e-08       4.97951708e-10       2.14969348e-08 
       9.93893662e-09       4.97951708e-10       2.14661123e-08 
      -1.04285461e-08       5.28774136e-10       2.14661109e-08 
      -9.94180638e-09       5.28774136e-10       2.14969334e-08 
       1.37647146e-08       8.86194854e-10       3.79629535e-08 
       1.31220855e-08       8.86194854e-10       3.79218568e-08 
      -1.37685452e-08       9.27291424e-10       3.79218543e-08 
      -1.31259161e-08       9.27291424e-10       3.79629510e-08 
       1.37647146e-08       8.86194854e-10       3.79629535e-08 
       1.31220855e-08       8.86194854e-10       3.79218568e-08 
      -1.37685452e-08       9.27291424e-10       3.79218543e-08 
      -1.31259161e-08       9.27291424e-10       3.79629510e-08 
       1.70356594e-08       1.38187883e-09       5.89248027e-08 
       1.62403194e-08       1.38187883e-09       5.88734318e-08 
      -1.70404529e-08       1.43324953e-09       5.88734279e-08 
      -1.62451129e-08       1.43324953e-09       5.89247988e-08 
       1.70356594e-08       1.38187883e-09       5.89248027e-08 
       1.62403194e-08       1.38187883e-09       5.88734318e-08 
      -1.70404529e-08       1.43324953e-09       5.88734279e-08 
      -1.62451129e-08       1.43324953e-09       5.89247988e-08 
       2.02385108e-08       1.98279039e-09       8.42898686e-08 
       1.92936385e-08       1.98279039e-09       8.42282235e-08 
      -2.02442691e-08       2.04443519e-09       8.42282181e-08 
      -1.92993969e-08       2.04443519e-09       8.42898632e-08 
       2.02385108e-08       1.98279039e-09       8.42898686e-08 
       1.92936385e-08       1.98279039e-09       8.42282235e-08 
      -2.02442691e-08       2.04443519e-09       8.42282181e-08 
      -1.92993969e-08       2.04443519e-09       8.42898632e-08 
       2.33732684e-08       2.68671622e-09       1.13965537e-07 
       2.22820424e-08       2.68671622e-09       1.13893618e-07 
      -2.33799938e-08       2.75863517e-09       1.13893611e-07 
      -2.22887678e-08       2.75863517e-09       1.13965530e-07 
       2.33732684e-08       2.68671622e-09       1.13965537e-07 
       2.22820424e-08       2.68671622e-09       1.13893618e-07 
      -2.33799938e-08       2.75863517e-09       1.13893611e-07 
      -2.22887678e-08       2.75863517e-09       1.13965530e-07 
       2.64399330e-08       3.49144308e-09       1.47859196e-07 
       2.52055319e-08       3.49144307e-09       1.47777002e-07 
      -2.64476269e-08       3.57363612e-09       1.47776993e-07 
      -2.52132257e-08       3.57363612e-09       1.47859186e-07 
       2.64399330e-08       3.49144308e-09       1.47859196e-07 
       2.52055319e-08       3.49144307e-09       1.47777002e-07 
      -2.64476269e-08       3.57363612e-09       1.47776993e-07 
      -2.52132257e-08       3.57363612e-09       1.47859186e-07 
       2.94385039e-08       4.39475767e-09       1.85878229e-07 
       2.80641062e-08       4.39475767e-09       1.85785761e-07 
      -2.94471686e-08       4.48722480e-09       1.85785750e-07 
      -2.80727709e-08       4.48722481e-09       1.85878217e-07 
       2.94385039e-08       4.39475767e-09       1.85878229e-07 
       2.80641062e-08       4.39475767e-09       1.85785761e-07 
      -2.94471686e-08       4.48722480e-09       1.85785750e-07 
      -2.80727709e-08       4.48722481e-09       1.85878217e-07 
       3.23689815e-08       5.39444674e-09       2.27930024e-07 
       3.08577655e-08       5.39444674e-09       2.27827282e-07 
      -3.23786186e-08       5.49718797e-09       2.27827268e-07 
      -3.08674029e-08       5.49718797e-09       2.27930010e-07 
       3.23689815e-08       5.39444672e-09       2.27930024e-07 
       3.08577657e-08       5.39444672e-09       2.27827282e-07 
      -3.23786186e-08       5.49718798e-09       2.27827268e-07 
      -3.08674029e-08       5.49718798e-09       2.27930010e-07 
       3.52351199e-08       6.48887660e-09       2.73923051e-07 
       3.35900974e-08       6.48887660e-09       2.73811116e-07 
      -3.52453904e-08       6.60081036e-09       2.73811100e-07 
      -3.36003678e-08       6.60081036e-09       2.73923034e-07 
       3.52351199e-08       6.48887660e-09       2.73923051e-07 
       3.35900974e-08       6.48887660e-09       2.73811116e-07 
      -3.52453904e-08       6.60081036e-09       2.73811100e-07 
      -3.36003678e-08       6.60081036e-09       2.73923034e-07 
       3.80403313e-08       7.67548738e-09       3.23773360e-07 
       3.62643462e-08       7.67548738e-09       3.23652233e-07 
      -3.80512393e-08       7.79661366e-09       3.23652214e-07 
      -3.62752541e-08       7.79661366e-09       3.23773341e-07 
       3.80403313e-08       7.67548738e-09       3.23773360e-07 
       3.62643462e-08       7.67548738e-09       3.23652233e-07 
      -3.80512393e-08       7.79661366e-09       3.23652214e-07 
      -3.62752541e-08       7.79661366e-09       3.23773341e-07 
       4.07846155e-08       8.95229876e-09       3.77398088e-07 
       3.88805115e-08       8.95229876e-09       3.77267768e-07 
      -4.07961660e-08       9.08261753e-09       3.77267746e-07 
      -3.88920622e-08       9.08261753e-09       3.77398066e-07 
       4.07846155e-08       8.95229876e-09       3.77398088e-07 
       3.88805115e-08       8.95229876e-09       3.77267768e-07 
      -4.07961660e-08       9.08261753e-09       3.77267746e-07 
      -3.88920622e-08       9.08261753e-09       3.77398066e-07 
       4.34679723e-08       1.03173304e-08       4.34714368e-07 
       4.14385937e-08       1.03173304e-08       4.34574856e-07 
      -4.34801701e-08       1.04568417e-08       4.34574831e-07 
      -4.14507912e-08       1.04568417e-08       4.34714343e-07 
       4.34679723e-08       1.03173304e-08       4.34714368e-07 
       4.14385937e-08       1.03173304e-08       4.34574856e-07 
      -4.34801701e-08       1.04568417e-08       4.34574831e-07 
      -4.14507912e-08       1.04568417e-08       4.34714343e-07 
       4.60904022e-08       1.17686021e-08       4.95639337e-07 
       4.39385928e-08       1.17686021e-08       4.95490632e-07 
      -4.61032517e-08       1.19173059e-08       4.95490603e-07 
      -4.39514420e-08       1.19173059e-08       4.95639309e-07 
       4.60904022e-08       1.17686021e-08       4.95639337e-07 
       4.39385928e-08       1.17686021e-08       4.95490632e-07 
      -4.61032517e-08       1.19173059e-08       4.95490603e-07 
      -4.39514420e-08       1.19173059e-08       4.95639309e-07 
       4.86519047e-08       1.33041335e-08       5.60090128e-07 
       4.63805083e-08       1.33041335e-08       5.59932230e-07 
      -4.86654106e-08       1.34620298e-08       5.59932199e-07 
      -4.63940144e-08       1.34620298e-08       5.60090097e-07 
       4.86519047e-08       1.33041335e-08       5.60090128e-07 
       4.63805083e-08       1.33041335e-08       5.59932230e-07 
      -4.86654106e-08       1.34620298e-08       5.59932199e-07 
      -4.63940144e-08       1.34620298e-08       5.60090097e-07 
       5.11524805e-08       1.49219443e-08       6.27983877e-07 
       4.87643415e-08       1.49219443e-08       6.27816787e-07 
      -5.11666467e-08       1.50890331e-08       6.27816752e-07 
      -4.87785077e-08       1.50890331e-08       6.27983843e-07 
       5.11524805e-08       1.49219443e-08       6.27983877e-07 
       4.87643415e-08       1.49219443e-08       6.27816787e-07 
      -5.11666467e-08       1.50890331e-08       6.27816752e-07 
      -4.87785077e-08       1.50890331e-08       6.27983843e-07 
       5.35921292e-08       1.66200542e-08       6.99237720e-07 
       5.10900915e-08       1.66200542e-08       6.99061437e-07 
      -5.36069600e-08       1.67963355e-08       6.99061398e-07 
      -5.11049221e-08       1.67963355e-08       6.99237681e-07 
       5.35921292e-08       1.66200542e-08       6.99237720e-07 
       5.10900915e-08       1.66200542e-08       6.99061437e-07 
      -5.36069600e-08       1.67963355e-08       6.99061398e-07 
      -5.11049221e-08       1.67963355e-08       6.99237681e-07 
       5.59708513e-08       1.83964830e-08       7.73768790e-07 
       5.33577587e-08       1.83964830e-08       7.73583314e-07 
      -5.59863502e-08       1.85819568e-08       7.73583273e-07 
      -5.33732576e-08       1.85819568e-08       7.73768748e-07 
       5.59708513e-08       1.83964830e-08       7.73768790e-07 
       5.33577587e-08       1.83964830e-08       7.73583314e-07 
      -5.59863502e-08       1.85819568e-08       7.73583273e-07 
      -5.33732576e-08       1.85819568e-08       7.73768748e-07 
       5.82886459e-08       2.02492502e-08       8.51494223e-07 
       5.55673427e-08       2.02492502e-08       8.51299555e-07 
      -5.83048181e-08       2.04439165e-08       8.51299510e-07 
      -5.55835147e-08       2.04439165e-08       8.51494178e-07 
       5.82886459e-08       2.02492503e-08       8.51494223e-07 
       5.55673427e-08       2.02492503e-08       8.51299555e-07 
      -5.83048181e-08       2.04439165e-08       8.51299510e-07 
      -5.55835145e-08       2.04439165e-08       8.51494178e-07 
       6.05492181e-08       2.21769553e-08       9.32332239e-07 
       5.77223802e-08       2.21769553e-08       9.32129459e-07 
      -6.05658266e-08       2.23797325e-08       9.32129411e-07 
      -5.77389891e-08       2.23797326e-08       9.32332190e-07 
       6.05492181e-08       2.21769553e-08       9.32332239e-07 
       5.77223802e-08       2.21769553e-08       9.32129459e-07 
      -6.05658266e-08       2.23797325e-08       9.32129411e-07 
      -5.77389891e-08       2.23797326e-08       9.32332190e-07 
       6.27560302e-08       2.41772713e-08       1.01620864e-06 
       5.98261676e-08       2.41772713e-08       1.01599775e-06 
      -6.27730810e-08       2.43881595e-08       1.01599769e-06 
      -5.98432184e-08       2.43881595e-08       1.01620858e-06 
       6.27560302e-08       2.41772713e-08       1.01620864e-06 
       5.98261676e-08       2.41772713e-08       1.01599775e-06 
      -6.27730810e-08       2.43881595e-08       1.01599769e-06 
      -5.98432184e-08       2.43881595e-08       1.01620858e-06 
       6.49090821e-08       2.62484509e-08       1.10305030e-06 
       6.18787044e-08       2.62484509e-08       1.10283130e-06 
      -6.49265801e-08       2.64674500e-08       1.10283124e-06 
      -6.18962024e-08       2.64674500e-08       1.10305024e-06 
       6.49090821e-08       2.62484509e-08       1.10305030e-06 
       6.18787044e-08       2.62484509e-08       1.10283130e-06 
      -6.49265801e-08       2.64674500e-08       1.10283124e-06 
      -6.18962024e-08       2.64674500e-08       1.10305024e-06 
       6.70083740e-08       2.83887467e-08       1.19278411e-06 
       6.38799906e-08       2.83887467e-08       1.19255700e-06 
      -6.70263254e-08       2.86158568e-08       1.19255694e-06 
      -6.38979416e-08       2.86158568e-08       1.19278405e-06 
       6.70083740e-08       2.83887467e-08       1.19278411e-06 
       6.38799906e-08       2.83887467e-08       1.19255700e-06 
      -6.70263254e-08       2.86158568e-08       1.19255694e-06 
      -6.38979416e-08       2.86158568e-08       1.19278405e-06 
       6.90539061e-08       3.05964115e-08       1.28533696e-06 
       6.58300259e-08       3.05964115e-08       1.28510174e-06 
      -6.90723163e-08       3.08316325e-08       1.28510167e-06 
      -6.58484356e-08       3.08316325e-08       1.28533690e-06 
       6.90539061e-08       3.05964115e-08       1.28533696e-06 
       6.58300259e-08       3.05964115e-08       1.28510174e-06 
      -6.90723163e-08       3.08316325e-08       1.28510167e-06 
      -6.58484356e-08       3.08316325e-08       1.28533690e-06 
       7.10456782e-08       3.28696979e-08       1.38063572e-06 
       6.77288110e-08       3.28696979e-08       1.38039239e-06 
      -7.10645520e-08       3.31130298e-08       1.38039232e-06 
      -6.77476848e-08       3.31130299e-08       1.38063566e-06 
       7.10456782e-08       3.28696979e-08       1.38063572e-06 
       6.77288110e-08       3.28696979e-08       1.38039239e-06 
      -7.10645520e-08       3.31130298e-08       1.38039232e-06 
      -6.77476848e-08       3.31130299e-08       1.38063566e-06 
       7.29836906e-08       3.52068586e-08       1.47860729e-06 
       6.95763456e-08       3.52068585e-08       1.47835584e-06 
      -7.30030334e-08       3.54583015e-08       1.47835577e-06 
      -6.95956883e-08       3.54583015e-08       1.47860722e-06 
       7.29836906e-08       3.52068586e-08       1.47860729e-06 
       6.95763456e-08       3.52068585e-08       1.47835584e-06 
      -7.30030334e-08       3.54583015e-08       1.47835577e-06 
      -6.95956883e-08       3.54583015e-08       1.47860722e-06 
       7.48679438e-08       3.76061462e-08       1.57917854e-06 
       7.13726305e-08       3.76061462e-08       1.57891898e-06 
      -7.48877591e-08       3.78657001e-08       1.57891891e-06 
      -7.13924457e-08       3.78657001e-08       1.57917846e-06 
       7.48679438e-08       3.76061462e-08       1.57917854e-06 
       7.13726305e-08       3.76061462e-08       1.57891898e-06 
      -7.48877591e-08       3.78657001e-08       1.57891891e-06 
      -7.13924457e-08       3.78657001e-08       1.57917846e-06 
       7.66984374e-08       4.00658135e-08       1.68227636e-06 
       7.31176648e-08       4.00658135e-08       1.68200869e-06 
      -7.67187309e-08       4.03334783e-08       1.68200861e-06 
      -7.31379584e-08       4.03334784e-08       1.68227628e-06 
       7.66984374e-08       4.00658135e-08       1.68227636e-06 
       7.31176648e-08       4.00658135e-08       1.68200869e-06 
      -7.67187309e-08       4.03334783e-08       1.68200861e-06 
      -7.31379584e-08       4.03334784e-08       1.68227628e-06 
       7.84751713e-08       4.25841132e-08       1.78782763e-06 
       7.48114486e-08       4.25841131e-08       1.78755185e-06 
      -7.84959475e-08       4.28598889e-08       1.78755177e-06 
      -7.48322257e-08       4.28598890e-08       1.78782755e-06 
       7.84751708e-08       4.25841132e-08       1.78782763e-06 
       7.48114486e-08       4.25841131e-08       1.78755185e-06 
      -7.84959480e-08       4.28598889e-08       1.78755177e-06 
      -7.48322257e-08       4.28598890e-08       1.78782755e-06 
       8.02018092e-08       4.51598774e-08       1.89576032e-06 
       7.64574799e-08       4.51598774e-08       1.89547751e-06 
      -8.02229128e-08       4.54426826e-08       1.89547743e-06 
      -7.64785835e-08       4.54426827e-08       1.89576024e-06 
       8.02018092e-08       4.51598774e-08       1.89576032e-06 
       7.64574799e-08       4.51598774e-08       1.89547751e-06 
      -8.02229128e-08       4.54426826e-08       1.89547743e-06 
      -7.64785835e-08       4.54426827e-08       1.89576024e-06 
       8.18818555e-08       4.77910123e-08       2.00600999e-06 
       7.80590934e-08       4.77910123e-08       2.00572015e-06 
      -8.19032908e-08       4.80808469e-08       2.00572006e-06 
      -7.80805287e-08       4.80808470e-08       2.00600990e-06 
       8.18818555e-08       4.77910123e-08       2.00600999e-06 
       7.80590934e-08       4.77910123e-08       2.00572015e-06 
      -8.19032908e-08       4.80808469e-08       2.00572006e-06 
      -7.80805287e-08       4.80808470e-08       2.00600990e-06 
       8.35153102e-08       5.04760035e-08       2.11851325e-06 
       7.96162900e-08       5.04760035e-08       2.11821638e-06 
      -8.35370817e-08       5.07728676e-08       2.11821629e-06 
      -7.96380615e-08       5.07728677e-08       2.11851316e-06 
       8.35153102e-08       5.04760035e-08       2.11851325e-06 
       7.96162900e-08       5.04760035e-08       2.11821638e-06 
      -8.35370817e-08       5.07728676e-08       2.11821629e-06 
      -7.96380615e-08       5.07728677e-08       2.11851316e-06 
       8.51021720e-08       5.32133368e-08       2.23320675e-06 
       8.11290688e-08       5.32133367e-08       2.23290285e-06 
      -8.51242858e-08       5.35172303e-08       2.23290275e-06 
      -8.11511827e-08       5.35172303e-08       2.23320665e-06 
       8.51021720e-08       5.32133368e-08       2.23320675e-06 
       8.11290688e-08       5.32133367e-08       2.23290285e-06 
      -8.51242858e-08       5.35172303e-08       2.23290275e-06 
      -8.11511827e-08       5.35172303e-08       2.23320665e-06 
       8.66424417e-08       5.60014976e-08       2.35002711e-06 
       8.25974302e-08       5.60014975e-08       2.34971619e-06 
      -8.66649028e-08       5.63124206e-08       2.34971609e-06 
      -8.26198914e-08       5.63124206e-08       2.35002701e-06 
       8.66424417e-08       5.60014976e-08       2.35002711e-06 
       8.25974302e-08       5.60014975e-08       2.34971619e-06 
      -8.66649028e-08       5.63124206e-08       2.34971609e-06 
      -8.26198914e-08       5.63124206e-08       2.35002701e-06 
       8.81361193e-08       5.88389717e-08       2.46891098e-06 
       8.40213747e-08       5.88389717e-08       2.46859302e-06 
      -8.81589322e-08       5.91569241e-08       2.46859292e-06 
      -8.40441876e-08       5.91569242e-08       2.46891088e-06 
       8.81361193e-08       5.88389717e-08       2.46891098e-06 
       8.40213747e-08       5.88389717e-08       2.46859302e-06 
      -8.81589322e-08       5.91569241e-08       2.46859292e-06 
      -8.40441876e-08       5.91569242e-08       2.46891088e-06 
       8.95832053e-08       6.17242448e-08       2.58979498e-06 
       8.54009019e-08       6.17242447e-08       2.58946999e-06 
      -8.96063748e-08       6.20492267e-08       2.58946989e-06 
      -8.54240718e-08       6.20492267e-08       2.58979487e-06 
       8.95832053e-08       6.17242448e-08       2.58979498e-06 
       8.54009019e-08       6.17242447e-08       2.58946999e-06 
      -8.96063748e-08       6.20492267e-08       2.58946989e-06 
      -8.54240718e-08       6.20492267e-08       2.58979487e-06 
       9.09836997e-08       6.46558024e-08       2.71261574e-06 
       8.67360126e-08       6.46558024e-08       2.71228373e-06 
      -9.10072298e-08       6.49878138e-08       2.71228362e-06 
      -8.67595427e-08       6.49878139e-08       2.71261563e-06 
       9.09836997e-08       6.46558024e-08       2.71261574e-06 
       8.67360126e-08       6.46558024e-08       2.71228373e-06 