# vtk DataFile Version 2.0
./output/onsasExample_nonLinearCantileverBlade_staitc3D_pitch numElements=10/onsasExample_nonLinearCantileverBlade_staitc3D_pitch numElements=10_0009.vtk
ASCII
DATASET UNSTRUCTURED_GRID

POINTS 800 float
      -1.831465e-24      -7.180703e-02      -7.180703e-02 
      -1.847863e-24       7.180703e-02      -7.180703e-02 
       1.831465e-24       7.180703e-02       7.180703e-02 
       1.847863e-24      -7.180703e-02       7.180703e-02 
       1.000000e-01      -7.180703e-02      -7.180703e-02 
       1.000000e-01       7.180703e-02      -7.180703e-02 
       1.000000e-01       7.180703e-02       7.180703e-02 
       1.000000e-01      -7.180703e-02       7.180703e-02 
       1.000000e-01      -7.180703e-02      -7.180703e-02 
       1.000000e-01       7.180703e-02      -7.180703e-02 
       1.000000e-01       7.180703e-02       7.180703e-02 
       1.000000e-01      -7.180703e-02       7.180703e-02 
       2.000000e-01      -7.180703e-02      -7.180703e-02 
       2.000000e-01       7.180703e-02      -7.180703e-02 
       2.000000e-01       7.180703e-02       7.180704e-02 
       2.000000e-01      -7.180703e-02       7.180704e-02 
       2.000000e-01      -7.180703e-02      -7.180703e-02 
       2.000000e-01       7.180703e-02      -7.180703e-02 
       2.000000e-01       7.180703e-02       7.180704e-02 
       2.000000e-01      -7.180703e-02       7.180704e-02 
       3.000000e-01      -7.180703e-02      -7.180702e-02 
       3.000000e-01       7.180703e-02      -7.180702e-02 
       3.000000e-01       7.180703e-02       7.180704e-02 
       3.000000e-01      -7.180703e-02       7.180704e-02 
       3.000000e-01      -7.180703e-02      -7.180702e-02 
       3.000000e-01       7.180703e-02      -7.180702e-02 
       3.000000e-01       7.180703e-02       7.180704e-02 
       3.000000e-01      -7.180703e-02       7.180704e-02 
       4.000000e-01      -7.180703e-02      -7.180702e-02 
       4.000000e-01       7.180703e-02      -7.180702e-02 
       4.000000e-01       7.180703e-02       7.180705e-02 
       4.000000e-01      -7.180703e-02       7.180705e-02 
       4.000000e-01      -7.180703e-02      -7.180702e-02 
       4.000000e-01       7.180703e-02      -7.180702e-02 
       4.000000e-01       7.180703e-02       7.180705e-02 
       4.000000e-01      -7.180703e-02       7.180705e-02 
       5.000000e-01      -7.180703e-02      -7.180701e-02 
       5.000000e-01       7.180703e-02      -7.180701e-02 
       5.000000e-01       7.180703e-02       7.180706e-02 
       5.000000e-01      -7.180703e-02       7.180706e-02 
       5.000000e-01      -7.180703e-02      -7.180701e-02 
       5.000000e-01       7.180703e-02      -7.180701e-02 
       5.000000e-01       7.180703e-02       7.180706e-02 
       5.000000e-01      -7.180703e-02       7.180706e-02 
       6.000000e-01      -7.180703e-02      -7.180700e-02 
       6.000000e-01       7.180703e-02      -7.180700e-02 
       6.000000e-01       7.180703e-02       7.180707e-02 
       6.000000e-01      -7.180703e-02       7.180707e-02 
       6.000000e-01      -7.180703e-02      -7.180700e-02 
       6.000000e-01       7.180703e-02      -7.180700e-02 
       6.000000e-01       7.180703e-02       7.180707e-02 
       6.000000e-01      -7.180703e-02       7.180707e-02 
       7.000000e-01      -7.180703e-02      -7.180699e-02 
       7.000000e-01       7.180703e-02      -7.180699e-02 
       7.000000e-01       7.180703e-02       7.180708e-02 
       7.000000e-01      -7.180703e-02       7.180708e-02 
       7.000000e-01      -7.180703e-02      -7.180699e-02 
       7.000000e-01       7.180703e-02      -7.180699e-02 
       7.000000e-01       7.180703e-02       7.180708e-02 
       7.000000e-01      -7.180703e-02       7.180708e-02 
       8.000000e-01      -7.180703e-02      -7.180698e-02 
       8.000000e-01       7.180703e-02      -7.180698e-02 
       8.000000e-01       7.180703e-02       7.180709e-02 
       8.000000e-01      -7.180703e-02       7.180709e-02 
       8.000000e-01      -7.180703e-02      -7.180698e-02 
       8.000000e-01       7.180703e-02      -7.180698e-02 
       8.000000e-01       7.180703e-02       7.180709e-02 
       8.000000e-01      -7.180703e-02       7.180709e-02 
       9.000000e-01      -7.180703e-02      -7.180696e-02 
       9.000000e-01       7.180703e-02      -7.180696e-02 
       9.000000e-01       7.180703e-02       7.180710e-02 
       9.000000e-01      -7.180703e-02       7.180710e-02 
       9.000000e-01      -7.180703e-02      -7.180696e-02 
       9.000000e-01       7.180703e-02      -7.180696e-02 
       9.000000e-01       7.180703e-02       7.180710e-02 
       9.000000e-01      -7.180703e-02       7.180710e-02 
       1.000000e+00      -7.180703e-02      -7.180695e-02 
       1.000000e+00       7.180703e-02      -7.180695e-02 
       1.000000e+00       7.180703e-02       7.180712e-02 
       1.000000e+00      -7.180703e-02       7.180712e-02 
       1.000000e+00      -7.180703e-02      -7.180695e-02 
       1.000000e+00       7.180703e-02      -7.180695e-02 
       1.000000e+00       7.180703e-02       7.180712e-02 
       1.000000e+00      -7.180703e-02       7.180712e-02 
       1.100000e+00      -7.180703e-02      -7.180693e-02 
       1.100000e+00       7.180703e-02      -7.180693e-02 
       1.100000e+00       7.180703e-02       7.180714e-02 
       1.100000e+00      -7.180703e-02       7.180714e-02 
       1.100000e+00      -7.180703e-02      -7.180693e-02 
       1.100000e+00       7.180703e-02      -7.180693e-02 
       1.100000e+00       7.180703e-02       7.180714e-02 
       1.100000e+00      -7.180703e-02       7.180714e-02 
       1.200000e+00      -7.180703e-02      -7.180691e-02 
       1.200000e+00       7.180703e-02      -7.180691e-02 
       1.200000e+00       7.180703e-02       7.180716e-02 
       1.200000e+00      -7.180703e-02       7.180716e-02 
       1.200000e+00      -7.180703e-02      -7.180691e-02 
       1.200000e+00       7.180703e-02      -7.180691e-02 
       1.200000e+00       7.180703e-02       7.180716e-02 
       1.200000e+00      -7.180703e-02       7.180716e-02 
       1.300000e+00      -7.180703e-02      -7.180689e-02 
       1.300000e+00       7.180704e-02      -7.180689e-02 
       1.300000e+00       7.180704e-02       7.180718e-02 
       1.300000e+00      -7.180703e-02       7.180718e-02 
       1.300000e+00      -7.180703e-02      -7.180689e-02 
       1.300000e+00       7.180704e-02      -7.180689e-02 
       1.300000e+00       7.180704e-02       7.180718e-02 
       1.300000e+00      -7.180703e-02       7.180718e-02 
       1.400000e+00      -7.180703e-02      -7.180687e-02 
       1.400000e+00       7.180704e-02      -7.180687e-02 
       1.400000e+00       7.180704e-02       7.180720e-02 
       1.400000e+00      -7.180703e-02       7.180720e-02 
       1.400000e+00      -7.180703e-02      -7.180687e-02 
       1.400000e+00       7.180704e-02      -7.180687e-02 
       1.400000e+00       7.180704e-02       7.180720e-02 
       1.400000e+00      -7.180703e-02       7.180720e-02 
       1.500000e+00      -7.180703e-02      -7.180685e-02 
       1.500000e+00       7.180704e-02      -7.180685e-02 
       1.500000e+00       7.180704e-02       7.180722e-02 
       1.500000e+00      -7.180703e-02       7.180722e-02 
       1.500000e+00      -7.180703e-02      -7.180685e-02 
       1.500000e+00       7.180704e-02      -7.180685e-02 
       1.500000e+00       7.180704e-02       7.180722e-02 
       1.500000e+00      -7.180703e-02       7.180722e-02 
       1.600000e+00      -7.180703e-02      -7.180682e-02 
       1.600000e+00       7.180704e-02      -7.180682e-02 
       1.600000e+00       7.180704e-02       7.180725e-02 
       1.600000e+00      -7.180703e-02       7.180725e-02 
       1.600000e+00      -7.180703e-02      -7.180682e-02 
       1.600000e+00       7.180704e-02      -7.180682e-02 
       1.600000e+00       7.180704e-02       7.180725e-02 
       1.600000e+00      -7.180703e-02       7.180725e-02 
       1.700000e+00      -7.180703e-02      -7.180680e-02 
       1.700000e+00       7.180704e-02      -7.180680e-02 
       1.700000e+00       7.180704e-02       7.180727e-02 
       1.700000e+00      -7.180703e-02       7.180727e-02 
       1.700000e+00      -7.180703e-02      -7.180680e-02 
       1.700000e+00       7.180704e-02      -7.180680e-02 
       1.700000e+00       7.180704e-02       7.180727e-02 
       1.700000e+00      -7.180703e-02       7.180727e-02 
       1.800000e+00      -7.180703e-02      -7.180677e-02 
       1.800000e+00       7.180704e-02      -7.180677e-02 
       1.800000e+00       7.180704e-02       7.180730e-02 
       1.800000e+00      -7.180703e-02       7.180730e-02 
       1.800000e+00      -7.180703e-02      -7.180677e-02 
       1.800000e+00       7.180704e-02      -7.180677e-02 
       1.800000e+00       7.180704e-02       7.180730e-02 
       1.800000e+00      -7.180703e-02       7.180730e-02 
       1.900000e+00      -7.180703e-02      -7.180674e-02 
       1.900000e+00       7.180704e-02      -7.180674e-02 
       1.900000e+00       7.180704e-02       7.180733e-02 
       1.900000e+00      -7.180703e-02       7.180733e-02 
       1.900000e+00      -7.180703e-02      -7.180674e-02 
       1.900000e+00       7.180704e-02      -7.180674e-02 
       1.900000e+00       7.180704e-02       7.180733e-02 
       1.900000e+00      -7.180703e-02       7.180733e-02 
       2.000000e+00      -7.180703e-02      -7.180671e-02 
       2.000000e+00       7.180704e-02      -7.180671e-02 
       2.000000e+00       7.180704e-02       7.180736e-02 
       2.000000e+00      -7.180703e-02       7.180736e-02 
       2.000000e+00      -7.180703e-02      -7.180671e-02 
       2.000000e+00       7.180704e-02      -7.180671e-02 
       2.000000e+00       7.180704e-02       7.180736e-02 
       2.000000e+00      -7.180703e-02       7.180736e-02 
       2.100000e+00      -7.180703e-02      -7.180668e-02 
[...]
POINT_DATA       800 
VECTORS Displacements float
      -1.83146502e-24       1.38777878e-17       0.00000000e+00 
      -1.84786260e-24       0.00000000e+00       0.00000000e+00 
       1.83146502e-24      -1.38777878e-17       0.00000000e+00 
       1.84786260e-24       0.00000000e+00       0.00000000e+00 
       1.33044908e-09       1.21729848e-11       9.17247236e-10 
       1.29383594e-09       1.21729571e-11       9.16017373e-10 
      -1.33058536e-09       1.34027928e-11       9.16017345e-10 
      -1.29397222e-09       1.34028066e-11       9.17247209e-10 
       1.33044908e-09       1.21729848e-11       9.17247236e-10 
       1.29383594e-09       1.21729571e-11       9.16017373e-10 
      -1.33058536e-09       1.34027928e-11       9.16017345e-10 
      -1.29397222e-09       1.34028066e-11       9.17247209e-10 
       2.63533273e-09       4.95951336e-11       3.64435046e-09 
       2.56280991e-09       4.95951197e-11       3.64189075e-09 
      -2.63560559e-09       5.20548327e-11       3.64189065e-09 
      -2.56308277e-09       5.20548465e-11       3.64435038e-09 
       2.63533273e-09       4.95951336e-11       3.64435046e-09 
       2.56280991e-09       4.95951197e-11       3.64189075e-09 
      -2.63560559e-09       5.20548327e-11       3.64189065e-09 
      -2.56308277e-09       5.20548465e-11       3.64435038e-09 
       3.91465088e-09       1.11776630e-10       8.14619676e-09 
       3.80692194e-09       1.11776616e-10       8.14250718e-09 
      -3.91506061e-09       1.15466178e-10       8.14250696e-09 
      -3.80733167e-09       1.15466192e-10       8.14619654e-09 
       3.91465088e-09       1.11776630e-10       8.14619676e-09 
       3.80692194e-09       1.11776616e-10       8.14250718e-09 
      -3.91506061e-09       1.15466178e-10       8.14250696e-09 
      -3.80733167e-09       1.15466192e-10       8.14619654e-09 
       5.16840359e-09       1.98227615e-10       1.43876732e-08 
       5.02617203e-09       1.98227601e-10       1.43827537e-08 
      -5.16895055e-09       2.03147013e-10       1.43827534e-08 
      -5.02671899e-09       2.03147027e-10       1.43876728e-08 
       5.16840359e-09       1.98227615e-10       1.43876732e-08 
       5.02617203e-09       1.98227601e-10       1.43827537e-08 
      -5.16895055e-09       2.03147013e-10       1.43827534e-08 
      -5.02671899e-09       2.03147027e-10       1.43876728e-08 
       6.39659092e-09       3.08458231e-10       2.23336668e-08 
       6.22056007e-09       3.08458217e-10       2.23275175e-08 
      -6.39727532e-09       3.14607507e-10       2.23275169e-08 
      -6.22124463e-09       3.14607521e-10       2.23336662e-08 
       6.39659092e-09       3.08458231e-10       2.23336668e-08 
       6.22056007e-09       3.08458217e-10       2.23275175e-08 
      -6.39727532e-09       3.14607507e-10       2.23275169e-08 
      -6.22124463e-09       3.14607521e-10       2.23336662e-08 
       7.59921281e-09       4.41978620e-10       3.19490646e-08 
       7.39008632e-09       4.41978606e-10       3.19416855e-08 
      -7.60003493e-09       4.49357745e-10       3.19416847e-08 
      -7.39090844e-09       4.49357759e-10       3.19490638e-08 
       7.59921281e-09       4.41978620e-10       3.19490646e-08 
       7.39008632e-09       4.41978606e-10       3.19416855e-08 
      -7.60003493e-09       4.49357745e-10       3.19416847e-08 
      -7.39090844e-09       4.49357759e-10       3.19490638e-08 
       8.77626904e-09       5.98298924e-10       4.31987538e-08 
       8.53475046e-09       5.98298910e-10       4.31901448e-08 
      -8.77722950e-09       6.06907885e-10       4.31901438e-08 
      -8.53571092e-09       6.06907899e-10       4.31987528e-08 
       8.77626904e-09       5.98298924e-10       4.31987538e-08 
       8.53475046e-09       5.98298910e-10       4.31901448e-08 
      -8.77722950e-09       6.06907885e-10       4.31901438e-08 
      -8.53571092e-09       6.06907899e-10       4.31987528e-08 
       9.92776006e-09       7.76929257e-10       5.60476214e-08 
       9.65455282e-09       7.76929243e-10       5.60377826e-08 
      -9.92885862e-09       7.86768095e-10       5.60377812e-08 
      -9.65565139e-09       7.86768109e-10       5.60476201e-08 
       9.92776006e-09       7.76929257e-10       5.60476214e-08 
       9.65455282e-09       7.76929243e-10       5.60377826e-08 
      -9.92885862e-09       7.86768095e-10       5.60377812e-08 
      -9.65565139e-09       7.86768109e-10       5.60476201e-08 
       1.10536853e-08       9.77379802e-10       7.04605545e-08 
       1.07494930e-08       9.77379788e-10       7.04494858e-08 
      -1.10549229e-08       9.88448476e-10       7.04494841e-08 
      -1.07507305e-08       9.88448490e-10       7.04605528e-08 
       1.10536853e-08       9.77379802e-10       7.04605545e-08 
       1.07494930e-08       9.77379788e-10       7.04494858e-08 
      -1.10549229e-08       9.88448476e-10       7.04494841e-08 
      -1.07507305e-08       9.88448490e-10       7.04605528e-08 
       1.21540453e-08       1.19916069e-09       8.64024401e-08 
       1.18195715e-08       1.19916066e-09       8.63901415e-08 
      -1.21554216e-08       1.21145920e-09       8.63901395e-08 
      -1.18209477e-08       1.21145922e-09       8.64024381e-08 
       1.21540453e-08       1.19916066e-09       8.64024401e-08 
       1.18195715e-08       1.19916065e-09       8.63901415e-08 
      -1.21554216e-08       1.21145921e-09       8.63901395e-08 
      -1.18209478e-08       1.21145922e-09       8.64024381e-08 
       1.32302098e-08       1.44185533e-09       1.03838717e-07 
       1.28661208e-08       1.44185532e-09       1.03825318e-07 
      -1.32316766e-08       1.45525426e-09       1.03825315e-07 
      -1.28675877e-08       1.45525428e-09       1.03838714e-07 
       1.32302098e-08       1.44185533e-09       1.03838717e-07 
       1.28661208e-08       1.44185532e-09       1.03825318e-07 
      -1.32316766e-08       1.45525426e-09       1.03825315e-07 
      -1.28675877e-08       1.45525428e-09       1.03838714e-07 
       1.42834999e-08       1.70495221e-09       1.22737416e-07 
       1.38904253e-08       1.70495219e-09       1.22722916e-07 
      -1.42850576e-08       1.71945151e-09       1.22722914e-07 
      -1.38919829e-08       1.71945153e-09       1.22737413e-07 
       1.42834999e-08       1.70495221e-09       1.22737416e-07 
       1.38904253e-08       1.70495219e-09       1.22722916e-07 
      -1.42850576e-08       1.71945151e-09       1.22722914e-07 
      -1.38919829e-08       1.71945153e-09       1.22737413e-07 
       1.53139152e-08       1.98801293e-09       1.43067121e-07 
       1.48924844e-08       1.98801292e-09       1.43051521e-07 
      -1.53155646e-08       2.00361262e-09       1.43051518e-07 
      -1.48941339e-08       2.00361264e-09       1.43067118e-07 
       1.53139152e-08       1.98801293e-09       1.43067121e-07 
       1.48924844e-08       1.98801292e-09       1.43051521e-07 
      -1.53155646e-08       2.00361262e-09       1.43051518e-07 
      -1.48941339e-08       2.00361264e-09       1.43067118e-07 
       1.63214562e-08       2.29059927e-09       1.64796415e-07 
       1.58722984e-08       2.29059925e-09       1.64779715e-07 
      -1.63231979e-08       2.30729934e-09       1.64779712e-07 
      -1.58740403e-08       2.30729937e-09       1.64796412e-07 
       1.63214562e-08       2.29059927e-09       1.64796415e-07 
       1.58722984e-08       2.29059925e-09       1.64779715e-07 
      -1.63231979e-08       2.30729934e-09       1.64779712e-07 
      -1.58740403e-08       2.30729937e-09       1.64796412e-07 
       1.73061223e-08       2.61227290e-09       1.87893882e-07 
       1.68298673e-08       2.61227288e-09       1.87876081e-07 
      -1.73079573e-08       2.63007337e-09       1.87876077e-07 
      -1.68317023e-08       2.63007338e-09       1.87893878e-07 
       1.73061223e-08       2.61227290e-09       1.87893882e-07 
       1.68298673e-08       2.61227288e-09       1.87876081e-07 
      -1.73079573e-08       2.63007337e-09       1.87876077e-07 
      -1.68317023e-08       2.63007338e-09       1.87893878e-07 
       1.82679138e-08       2.95259553e-09       2.12328104e-07 
       1.77651911e-08       2.95259552e-09       2.12309203e-07 
      -1.82698430e-08       2.97149638e-09       2.12309198e-07 
      -1.77671202e-08       2.97149640e-09       2.12328099e-07 
       1.82679138e-08       2.95259553e-09       2.12328104e-07 
       1.77651911e-08       2.95259552e-09       2.12309203e-07 
      -1.82698430e-08       2.97149638e-09       2.12309198e-07 
      -1.77671202e-08       2.97149640e-09       2.12328099e-07 
       1.92068315e-08       3.31112888e-09       2.38067665e-07 
       1.86782700e-08       3.31112887e-09       2.38047663e-07 
      -1.92088543e-08       3.33113011e-09       2.38047658e-07 
      -1.86802931e-08       3.33113012e-09       2.38067660e-07 
       1.92068315e-08       3.31112888e-09       2.38067665e-07 
       1.86782700e-08       3.31112887e-09       2.38047663e-07 
      -1.92088543e-08       3.33113011e-09       2.38047658e-07 
      -1.86802931e-08       3.33113012e-09       2.38067660e-07 
       2.01228738e-08       3.68743464e-09       2.65081147e-07 
       1.95691037e-08       3.68743462e-09       2.65060045e-07 
      -2.01249921e-08       3.70853624e-09       2.65060040e-07 
      -1.95712218e-08       3.70853626e-09       2.65081141e-07 
       2.01228738e-08       3.68743464e-09       2.65081147e-07 
       1.95691037e-08       3.68743462e-09       2.65060045e-07 
      -2.01249921e-08       3.70853624e-09       2.65060040e-07 
      -1.95712218e-08       3.70853626e-09       2.65081141e-07 
       2.10160422e-08       4.08107451e-09       2.93337134e-07 
       2.04376924e-08       4.08107449e-09       2.93314932e-07 
      -2.10182556e-08       4.10327651e-09       2.93314926e-07 
      -2.04399058e-08       4.10327652e-09       2.93337128e-07 
       2.10160422e-08       4.08107451e-09       2.93337134e-07 
       2.04376924e-08       4.08107449e-09       2.93314932e-07 
      -2.10182556e-08       4.10327651e-09       2.93314926e-07 
      -2.04399058e-08       4.10327652e-09       2.93337128e-07 
       2.18863354e-08       4.49161019e-09       3.22804210e-07 
       2.12840359e-08       4.49161017e-09       3.22780907e-07 
      -2.18886456e-08       4.51491258e-09       3.22780901e-07 
      -2.12863456e-08       4.51491260e-09       3.22804203e-07 
       2.18863359e-08       4.49161019e-09       3.22804210e-07 
       2.12840359e-08       4.49161018e-09       3.22780907e-07 
      -2.18886453e-08       4.51491258e-09       3.22780901e-07 
      -2.12863458e-08       4.51491260e-09       3.22804203e-07 
       2.27351173e-08       4.91867676e-09       3.53451508e-07 
       2.21094600e-08       4.91867673e-09       3.53427234e-07 
      -2.27374897e-08       4.94295005e-09       3.53427227e-07 
      -2.21118324e-08       4.94295006e-09       3.53451501e-07 
       2.27351173e-08       4.91867676e-09       3.53451508e-07 
       2.21094600e-08       4.91867673e-09       3.53427234e-07 
      -2.27374897e-08       4.94295005e-09       3.53427227e-07 
      -2.21118324e-08       4.94295006e-09       3.53451501e-07 
       2.35637159e-08       5.36181410e-09       3.85250756e-07 
       2.29152559e-08       5.36181409e-09       3.85225512e-07 
      -2.35661513e-08       5.38705833e-09       3.85225504e-07 
      -2.29176917e-08       5.38705835e-09       3.85250749e-07 
       2.35637159e-08       5.36181410e-09       3.85250756e-07 
       2.29152559e-08       5.36181409e-09       3.85225512e-07 
      -2.35661513e-08       5.38705833e-09       3.85225504e-07 
      -2.29176917e-08       5.38705835e-09       3.85250749e-07 
       2.43721310e-08       5.82063553e-09       4.18174234e-07 
       2.37014244e-08       5.82063552e-09       4.18148019e-07 
      -2.43746299e-08       5.84685067e-09       4.18148011e-07 
      -2.37039233e-08       5.84685068e-09       4.18174226e-07 
       2.43721310e-08       5.82063553e-09       4.18174234e-07 
       2.37014244e-08       5.82063552e-09       4.18148019e-07 
      -2.43746299e-08       5.84685067e-09       4.18148011e-07 
      -2.37039233e-08       5.84685068e-09       4.18174226e-07 
       2.51603618e-08       6.29475429e-09       4.52194222e-07 
       2.44679641e-08       6.29475427e-09       4.52167035e-07 
      -2.51629260e-08       6.32194036e-09       4.52167027e-07 
      -2.44705278e-08       6.32194037e-09       4.52194213e-07 
       2.51603618e-08       6.29475429e-09       4.52194222e-07 
       2.44679641e-08       6.29475427e-09       4.52167035e-07 
      -2.51629260e-08       6.32194036e-09       4.52167027e-07 
      -2.44705278e-08       6.32194037e-09       4.52194213e-07 
       2.59284096e-08       6.78378365e-09       4.87282997e-07 
       2.52148755e-08       6.78378363e-09       4.87254840e-07 
      -2.59310391e-08       6.81194064e-09       4.87254831e-07 
      -2.52175054e-08       6.81194065e-09       4.87282988e-07 
       2.59284096e-08       6.78378365e-09       4.87282997e-07 
       2.52148755e-08       6.78378363e-09       4.87254840e-07 
      -2.59310391e-08       6.81194064e-09       4.87254831e-07 
      -2.52175054e-08       6.81194065e-09       4.87282988e-07 
       2.66762736e-08       7.28733691e-09       5.23412841e-07 
       2.59421591e-08       7.28733689e-09       5.23383713e-07 
      -2.66789697e-08       7.31646481e-09       5.23383703e-07 
      -2.59448552e-08       7.31646482e-09       5.23412831e-07 
       2.66762736e-08       7.28733691e-09       5.23412841e-07 
       2.59421591e-08       7.28733689e-09       5.23383713e-07 
      -2.66789697e-08       7.31646481e-09       5.23383703e-07 
      -2.59448552e-08       7.31646482e-09       5.23412831e-07 
       2.74039542e-08       7.80502729e-09       5.60556031e-07 
       2.66498144e-08       7.80502728e-09       5.60525932e-07 
      -2.74067178e-08       7.83512613e-09       5.60525922e-07 
      -2.66525779e-08       7.83512615e-09       5.60556021e-07 
       2.74039542e-08       7.80502729e-09       5.60556031e-07 
       2.66498144e-08       7.80502728e-09       5.60525932e-07 
      -2.74067178e-08       7.83512613e-09       5.60525922e-07 
      -2.66525779e-08       7.83512615e-09       5.60556021e-07 
       2.81114518e-08       8.33646810e-09       5.98684847e-07 
       2.73378422e-08       8.33646809e-09       5.98653777e-07 
      -2.81142820e-08       8.36753784e-09       5.98653766e-07 
      -2.73406724e-08       8.36753787e-09       5.98684836e-07 
       2.81114518e-08       8.33646810e-09       5.98684847e-07 
       2.73378422e-08       8.33646809e-09       5.98653777e-07 
      -2.81142820e-08       8.36753784e-09       5.98653766e-07 
      -2.73406724e-08       8.36753787e-09       5.98684836e-07 
       2.87987656e-08       8.88127261e-09       6.37771569e-07 
       2.80062418e-08       8.88127258e-09       6.37739528e-07 
      -2.88016646e-08       8.91331325e-09       6.37739517e-07 
      -2.80091403e-08       8.91331328e-09       6.37771558e-07 
       2.87987656e-08       8.88127261e-09       6.37771569e-07 
       2.80062418e-08       8.88127258e-09       6.37739528e-07 
      -2.88016646e-08       8.91331325e-09       6.37739517e-07 
      -2.80091403e-08       8.91331328e-09       6.37771558e-07 
       2.94658955e-08       9.43905404e-09       6.77788475e-07 
       2.86550126e-08       9.43905402e-09       6.77755463e-07 
      -2.94688638e-08       9.47206563e-09       6.77755451e-07 
      -2.86579809e-08       9.47206565e-09       6.77788463e-07 
       2.94658955e-08       9.43905402e-09       6.77788475e-07 
       2.86550126e-08       9.43905405e-09       6.77755463e-07 
      -2.94688638e-08       9.47206565e-09       6.77755451e-07 
      -2.86579809e-08       9.47206562e-09       6.77788463e-07 
       3.01141996e-08       1.00094990e-08       7.18708397e-07 
       2.92854758e-08       1.00094990e-08       7.18674543e-07 
      -3.01172145e-08       1.00433521e-08       7.18674531e-07 
      -2.92884907e-08       1.00433521e-08       7.18708384e-07 
       3.01141996e-08       1.00094990e-08       7.18708397e-07 
       2.92854758e-08       1.00094990e-08       7.18674543e-07 
      -3.01172145e-08       1.00433521e-08       7.18674531e-07 
      -2.92884907e-08       1.00433521e-08       7.18708384e-07 
       3.07450105e-08       1.05921991e-08       7.60506757e-07 
       2.98989278e-08       1.05921991e-08       7.60472062e-07 
      -3.07480734e-08       1.06268937e-08       7.60472050e-07 
      -2.99019902e-08       1.06268936e-08       7.60506745e-07 
       3.07450105e-08       1.05921991e-08       7.60506757e-07 
       2.98989278e-08       1.05921991e-08       7.60472062e-07 
      -3.07480734e-08       1.06268937e-08       7.60472050e-07 
      -2.99019902e-08       1.06268936e-08       7.60506745e-07 
       3.13583302e-08       1.11868190e-08       8.03159533e-07 
       3.04953689e-08       1.11868191e-08       8.03123996e-07 
      -3.13614401e-08       1.12223551e-08       8.03123983e-07 
      -3.04984793e-08       1.12223550e-08       8.03159519e-07 
       3.13583302e-08       1.11868190e-08       8.03159533e-07 
       3.04953689e-08       1.11868191e-08       8.03123996e-07 
      -3.13614401e-08       1.12223551e-08       8.03123983e-07 
      -3.04984793e-08       1.12223550e-08       8.03159519e-07 
       3.19541567e-08       1.17930237e-08       8.46642698e-07 
       3.10747992e-08       1.17930237e-08       8.46606320e-07 
      -3.19573159e-08       1.18294012e-08       8.46606307e-07 
      -3.10779584e-08       1.18294012e-08       8.46642684e-07 
       3.19541567e-08       1.17930237e-08       8.46642698e-07 
       3.10747992e-08       1.17930237e-08       8.46606320e-07 
      -3.19573159e-08       1.18294012e-08       8.46606307e-07 
      -3.10779584e-08       1.18294012e-08       8.46642684e-07 
       3.25324905e-08       1.24104779e-08       8.90932229e-07 
       3.16372177e-08       1.24104780e-08       8.90895010e-07 
      -3.25356999e-08       1.24476969e-08       8.90894995e-07 
      -3.16404272e-08       1.24476969e-08       8.90932215e-07 
       3.25324905e-08       1.24104779e-08       8.90932229e-07 
       3.16372177e-08       1.24104780e-08       8.90895010e-07 
      -3.25356999e-08       1.24476969e-08       8.90894995e-07 
      -3.16404272e-08       1.24476969e-08       8.90932215e-07 
       3.30933321e-08       1.30388466e-08       9.36004101e-07 
       3.21826255e-08       1.30388466e-08       9.35966040e-07 
      -3.30965921e-08       1.30769070e-08       9.35966025e-07 
      -3.21858855e-08       1.30769069e-08       9.36004086e-07 
       3.30933321e-08       1.30388466e-08       9.36004101e-07 
       3.21826255e-08       1.30388466e-08       9.35966040e-07 
      -3.30965921e-08       1.30769070e-08       9.35966025e-07 
      -3.21858855e-08       1.30769069e-08       9.36004086e-07 
       3.36366814e-08       1.36777944e-08       9.81834288e-07 
       3.27110223e-08       1.36777945e-08       9.81795386e-07 
      -3.36399926e-08       1.37166963e-08       9.81795371e-07 
      -3.27143335e-08       1.37166963e-08       9.81834273e-07 
       3.36366814e-08       1.36777944e-08       9.81834288e-07 
       3.27110223e-08       1.36777945e-08       9.81795386e-07 
      -3.36399926e-08       1.37166963e-08       9.81795371e-07 
      -3.27143335e-08       1.37166963e-08       9.81834273e-07 
       3.41625390e-08       1.43269863e-08       1.02839877e-06 
       3.32224084e-08       1.43269864e-08       1.02835902e-06 
      -3.41659008e-08       1.43667297e-08       1.02835901e-06 
      -3.32257701e-08       1.43667296e-08       1.02839875e-06 
       3.41625390e-08       1.43269863e-08       1.02839877e-06 
       3.32224084e-08       1.43269864e-08       1.02835902e-06 