# vtk DataFile Version 2.0
./output/onsasExample_nonLinearCantileverBlade_staitc3D_pitch numElements=10/onsasExample_nonLinearCantileverBlade_staitc3D_pitch numElements=10_0018.vtk
ASCII
DATASET UNSTRUCTURED_GRID

POINTS 800 float
       1.651712e-24      -7.180703e-02      -7.180703e-02 
       1.608309e-24       7.180703e-02      -7.180703e-02 
      -1.651712e-24       7.180703e-02       7.180703e-02 
      -1.608309e-24      -7.180703e-02       7.180703e-02 
       1.000000e-01      -7.180703e-02      -7.180703e-02 
       1.000000e-01       7.180703e-02      -7.180703e-02 
       1.000000e-01       7.180703e-02       7.180704e-02 
       1.000000e-01      -7.180703e-02       7.180704e-02 
       1.000000e-01      -7.180703e-02      -7.180703e-02 
       1.000000e-01       7.180703e-02      -7.180703e-02 
       1.000000e-01       7.180703e-02       7.180704e-02 
       1.000000e-01      -7.180703e-02       7.180704e-02 
       2.000000e-01      -7.180703e-02      -7.180702e-02 
       2.000000e-01       7.180703e-02      -7.180702e-02 
       2.000000e-01       7.180703e-02       7.180704e-02 
       2.000000e-01      -7.180703e-02       7.180704e-02 
       2.000000e-01      -7.180703e-02      -7.180702e-02 
       2.000000e-01       7.180703e-02      -7.180702e-02 
       2.000000e-01       7.180703e-02       7.180704e-02 
       2.000000e-01      -7.180703e-02       7.180704e-02 
       3.000000e-01      -7.180703e-02      -7.180701e-02 
       3.000000e-01       7.180703e-02      -7.180701e-02 
       3.000000e-01       7.180703e-02       7.180706e-02 
       3.000000e-01      -7.180703e-02       7.180706e-02 
       3.000000e-01      -7.180703e-02      -7.180701e-02 
       3.000000e-01       7.180703e-02      -7.180701e-02 
       3.000000e-01       7.180703e-02       7.180706e-02 
       3.000000e-01      -7.180703e-02       7.180706e-02 
       4.000000e-01      -7.180703e-02      -7.180699e-02 
       4.000000e-01       7.180704e-02      -7.180699e-02 
       4.000000e-01       7.180704e-02       7.180707e-02 
       4.000000e-01      -7.180703e-02       7.180707e-02 
       4.000000e-01      -7.180703e-02      -7.180699e-02 
       4.000000e-01       7.180704e-02      -7.180699e-02 
       4.000000e-01       7.180704e-02       7.180707e-02 
       4.000000e-01      -7.180703e-02       7.180707e-02 
       5.000000e-01      -7.180703e-02      -7.180697e-02 
       5.000000e-01       7.180704e-02      -7.180697e-02 
       5.000000e-01       7.180704e-02       7.180710e-02 
       5.000000e-01      -7.180703e-02       7.180710e-02 
       5.000000e-01      -7.180703e-02      -7.180697e-02 
       5.000000e-01       7.180704e-02      -7.180697e-02 
       5.000000e-01       7.180704e-02       7.180710e-02 
       5.000000e-01      -7.180703e-02       7.180710e-02 
       6.000000e-01      -7.180703e-02      -7.180694e-02 
       6.000000e-01       7.180704e-02      -7.180694e-02 
       6.000000e-01       7.180704e-02       7.180712e-02 
       6.000000e-01      -7.180703e-02       7.180712e-02 
       6.000000e-01      -7.180703e-02      -7.180694e-02 
       6.000000e-01       7.180704e-02      -7.180694e-02 
       6.000000e-01       7.180704e-02       7.180712e-02 
       6.000000e-01      -7.180703e-02       7.180712e-02 
       7.000000e-01      -7.180703e-02      -7.180691e-02 
       7.000000e-01       7.180704e-02      -7.180691e-02 
       7.000000e-01       7.180704e-02       7.180716e-02 
       7.000000e-01      -7.180703e-02       7.180716e-02 
       7.000000e-01      -7.180703e-02      -7.180691e-02 
       7.000000e-01       7.180704e-02      -7.180691e-02 
       7.000000e-01       7.180704e-02       7.180716e-02 
       7.000000e-01      -7.180703e-02       7.180716e-02 
       8.000000e-01      -7.180702e-02      -7.180687e-02 
       8.000000e-01       7.180704e-02      -7.180687e-02 
       8.000000e-01       7.180704e-02       7.180719e-02 
       8.000000e-01      -7.180702e-02       7.180719e-02 
       8.000000e-01      -7.180702e-02      -7.180687e-02 
       8.000000e-01       7.180704e-02      -7.180687e-02 
       8.000000e-01       7.180704e-02       7.180719e-02 
       8.000000e-01      -7.180702e-02       7.180719e-02 
       9.000000e-01      -7.180702e-02      -7.180683e-02 
       9.000000e-01       7.180704e-02      -7.180683e-02 
       9.000000e-01       7.180704e-02       7.180723e-02 
       9.000000e-01      -7.180702e-02       7.180723e-02 
       9.000000e-01      -7.180702e-02      -7.180683e-02 
       9.000000e-01       7.180704e-02      -7.180683e-02 
       9.000000e-01       7.180704e-02       7.180723e-02 
       9.000000e-01      -7.180702e-02       7.180723e-02 
       1.000000e+00      -7.180702e-02      -7.180679e-02 
       1.000000e+00       7.180705e-02      -7.180679e-02 
       1.000000e+00       7.180705e-02       7.180728e-02 
       1.000000e+00      -7.180702e-02       7.180728e-02 
       1.000000e+00      -7.180702e-02      -7.180679e-02 
       1.000000e+00       7.180705e-02      -7.180679e-02 
       1.000000e+00       7.180705e-02       7.180728e-02 
       1.000000e+00      -7.180702e-02       7.180728e-02 
       1.100000e+00      -7.180702e-02      -7.180674e-02 
       1.100000e+00       7.180705e-02      -7.180674e-02 
       1.100000e+00       7.180705e-02       7.180733e-02 
       1.100000e+00      -7.180702e-02       7.180733e-02 
       1.100000e+00      -7.180702e-02      -7.180674e-02 
       1.100000e+00       7.180705e-02      -7.180674e-02 
       1.100000e+00       7.180705e-02       7.180733e-02 
       1.100000e+00      -7.180702e-02       7.180733e-02 
       1.200000e+00      -7.180701e-02      -7.180668e-02 
       1.200000e+00       7.180705e-02      -7.180668e-02 
       1.200000e+00       7.180705e-02       7.180738e-02 
       1.200000e+00      -7.180701e-02       7.180738e-02 
       1.200000e+00      -7.180701e-02      -7.180668e-02 
       1.200000e+00       7.180705e-02      -7.180668e-02 
       1.200000e+00       7.180705e-02       7.180738e-02 
       1.200000e+00      -7.180701e-02       7.180738e-02 
       1.300000e+00      -7.180701e-02      -7.180662e-02 
       1.300000e+00       7.180706e-02      -7.180662e-02 
       1.300000e+00       7.180706e-02       7.180744e-02 
       1.300000e+00      -7.180701e-02       7.180744e-02 
       1.300000e+00      -7.180701e-02      -7.180662e-02 
       1.300000e+00       7.180706e-02      -7.180662e-02 
       1.300000e+00       7.180706e-02       7.180744e-02 
       1.300000e+00      -7.180701e-02       7.180744e-02 
       1.400000e+00      -7.180701e-02      -7.180656e-02 
       1.400000e+00       7.180706e-02      -7.180656e-02 
       1.400000e+00       7.180706e-02       7.180750e-02 
       1.400000e+00      -7.180701e-02       7.180750e-02 
       1.400000e+00      -7.180701e-02      -7.180656e-02 
       1.400000e+00       7.180706e-02      -7.180656e-02 
       1.400000e+00       7.180706e-02       7.180750e-02 
       1.400000e+00      -7.180701e-02       7.180750e-02 
       1.500000e+00      -7.180700e-02      -7.180650e-02 
       1.500000e+00       7.180706e-02      -7.180650e-02 
       1.500000e+00       7.180706e-02       7.180757e-02 
       1.500000e+00      -7.180700e-02       7.180757e-02 
       1.500000e+00      -7.180700e-02      -7.180650e-02 
       1.500000e+00       7.180706e-02      -7.180650e-02 
       1.500000e+00       7.180706e-02       7.180757e-02 
       1.500000e+00      -7.180700e-02       7.180757e-02 
       1.600000e+00      -7.180700e-02      -7.180643e-02 
       1.600000e+00       7.180707e-02      -7.180643e-02 
       1.600000e+00       7.180707e-02       7.180764e-02 
       1.600000e+00      -7.180700e-02       7.180764e-02 
       1.600000e+00      -7.180700e-02      -7.180643e-02 
       1.600000e+00       7.180707e-02      -7.180643e-02 
       1.600000e+00       7.180707e-02       7.180764e-02 
       1.600000e+00      -7.180700e-02       7.180764e-02 
       1.700000e+00      -7.180699e-02      -7.180635e-02 
       1.700000e+00       7.180707e-02      -7.180635e-02 
       1.700000e+00       7.180707e-02       7.180771e-02 
       1.700000e+00      -7.180699e-02       7.180771e-02 
       1.700000e+00      -7.180699e-02      -7.180635e-02 
       1.700000e+00       7.180707e-02      -7.180635e-02 
       1.700000e+00       7.180707e-02       7.180771e-02 
       1.700000e+00      -7.180699e-02       7.180771e-02 
       1.800000e+00      -7.180699e-02      -7.180628e-02 
       1.800000e+00       7.180708e-02      -7.180628e-02 
       1.800000e+00       7.180708e-02       7.180779e-02 
       1.800000e+00      -7.180699e-02       7.180779e-02 
       1.800000e+00      -7.180699e-02      -7.180628e-02 
       1.800000e+00       7.180708e-02      -7.180628e-02 
       1.800000e+00       7.180708e-02       7.180779e-02 
       1.800000e+00      -7.180699e-02       7.180779e-02 
       1.900000e+00      -7.180699e-02      -7.180619e-02 
       1.900000e+00       7.180708e-02      -7.180620e-02 
       1.900000e+00       7.180708e-02       7.180787e-02 
       1.900000e+00      -7.180698e-02       7.180787e-02 
       1.900000e+00      -7.180699e-02      -7.180619e-02 
       1.900000e+00       7.180708e-02      -7.180620e-02 
       1.900000e+00       7.180708e-02       7.180787e-02 
       1.900000e+00      -7.180698e-02       7.180787e-02 
       2.000000e+00      -7.180698e-02      -7.180611e-02 
       2.000000e+00       7.180709e-02      -7.180611e-02 
       2.000000e+00       7.180709e-02       7.180795e-02 
       2.000000e+00      -7.180698e-02       7.180796e-02 
       2.000000e+00      -7.180698e-02      -7.180611e-02 
       2.000000e+00       7.180709e-02      -7.180611e-02 
       2.000000e+00       7.180709e-02       7.180795e-02 
       2.000000e+00      -7.180698e-02       7.180796e-02 
       2.100000e+00      -7.180698e-02      -7.180602e-02 
[...]
POINT_DATA       800 
VECTORS Displacements float
       1.65171152e-24       0.00000000e+00      -1.38777878e-17 
       1.60830884e-24       0.00000000e+00       0.00000000e+00 
      -1.65171152e-24       0.00000000e+00       1.38777878e-17 
      -1.60830884e-24       0.00000000e+00       0.00000000e+00 
       3.96175734e-09       1.32281255e-10       2.63557606e-09 
       3.53415013e-09       1.32281242e-10       2.60143761e-09 
      -3.96292903e-09       1.66419670e-10       2.60143741e-09 
      -3.53532180e-09       1.66419670e-10       2.63557587e-09 
       3.96175734e-09       1.32281255e-10       2.63557606e-09 
       3.53415013e-09       1.32281242e-10       2.60143761e-09 
      -3.96292903e-09       1.66419670e-10       2.60143741e-09 
      -3.53532180e-09       1.66419670e-10       2.63557587e-09 
       7.84737869e-09       5.59449403e-10       1.04412953e-08 
       7.00038055e-09       5.59449417e-10       1.03730184e-08 
      -7.84972462e-09       6.27726260e-10       1.03730176e-08 
      -7.00272648e-09       6.27726246e-10       1.04412946e-08 
       7.84737869e-09       5.59449403e-10       1.04412953e-08 
       7.00038055e-09       5.59449417e-10       1.03730184e-08 
      -7.84972462e-09       6.27726260e-10       1.03730176e-08 
      -7.00272648e-09       6.27726246e-10       1.04412946e-08 
       1.16568641e-08       1.27578340e-09       2.33168521e-08 
       1.03986914e-08       1.27578341e-09       2.32144367e-08 
      -1.16603868e-08       1.37819864e-09       2.32144350e-08 
      -1.04022140e-08       1.37819862e-09       2.33168504e-08 
       1.16568641e-08       1.27578340e-09       2.33168521e-08 
       1.03986914e-08       1.27578341e-09       2.32144367e-08 
      -1.16603868e-08       1.37819864e-09       2.32144350e-08 
      -1.04022140e-08       1.37819862e-09       2.33168504e-08 
       1.53902136e-08       2.27556211e-09       4.11619406e-08 
       1.37290825e-08       2.27556213e-09       4.10253867e-08 
      -1.53949155e-08       2.41211573e-09       4.10253837e-08 
      -1.37337844e-08       2.41211573e-09       4.11619377e-08 
       1.53902136e-08       2.27556211e-09       4.11619406e-08 
       1.37290825e-08       2.27556213e-09       4.10253867e-08 
      -1.53949155e-08       2.41211573e-09       4.10253837e-08 
      -1.37337844e-08       2.41211573e-09       4.11619377e-08 
       1.90474272e-08       3.55306448e-09       6.38762552e-08 
       1.69915541e-08       3.55306448e-09       6.37055627e-08 
      -1.90533107e-08       3.72375646e-09       6.37055582e-08 
      -1.69974376e-08       3.72375646e-09       6.38762507e-08 
       1.90474272e-08       3.55306448e-09       6.38762552e-08 
       1.69915541e-08       3.55306448e-09       6.37055627e-08 
      -1.90533107e-08       3.72375646e-09       6.37055582e-08 
      -1.69974376e-08       3.72375646e-09       6.38762507e-08 
       2.26285050e-08       5.10256942e-09       9.13594902e-08 
       2.01861060e-08       5.10256941e-09       9.11546592e-08 
      -2.26355725e-08       5.30739971e-09       9.11546528e-08 
      -2.01931736e-08       5.30739971e-09       9.13594838e-08 
       2.26285050e-08       5.10256942e-09       9.13594902e-08 
       2.01861060e-08       5.10256941e-09       9.11546592e-08 
      -2.26355725e-08       5.30739971e-09       9.11546528e-08 
      -2.01931736e-08       5.30739971e-09       9.13594838e-08 
       2.61334467e-08       6.91835583e-09       1.23511340e-07 
       2.33127383e-08       6.91835582e-09       1.23272370e-07 
      -2.61417007e-08       7.15732444e-09       1.23272362e-07 
      -2.33209922e-08       7.15732446e-09       1.23511331e-07 
       2.61334467e-08       6.91835583e-09       1.23511340e-07 
       2.33127383e-08       6.91835582e-09       1.23272370e-07 
      -2.61417007e-08       7.15732444e-09       1.23272362e-07 
      -2.33209922e-08       7.15732446e-09       1.23511331e-07 
       2.95622528e-08       8.99470261e-09       1.60231498e-07 
       2.63714512e-08       8.99470259e-09       1.59958390e-07 
      -2.95716952e-08       9.26780953e-09       1.59958379e-07 
      -2.63808937e-08       9.26780955e-09       1.60231487e-07 
       2.95622528e-08       8.99470261e-09       1.60231498e-07 
       2.63714512e-08       8.99470259e-09       1.59958390e-07 
      -2.95716952e-08       9.26780953e-09       1.59958379e-07 
      -2.63808937e-08       9.26780955e-09       1.60231487e-07 
       3.29149231e-08       1.13258887e-08       2.01419660e-07 
       2.93622446e-08       1.13258887e-08       2.01112413e-07 
      -3.29255563e-08       1.16331339e-08       2.01112400e-07 
      -2.93728778e-08       1.16331340e-08       2.01419647e-07 
       3.29149231e-08       1.13258887e-08       2.01419660e-07 
       2.93622446e-08       1.13258887e-08       2.01112413e-07 
      -3.29255563e-08       1.16331339e-08       2.01112400e-07 
      -2.93728778e-08       1.16331340e-08       2.01419647e-07 
       3.61914576e-08       1.39061930e-08       2.46975519e-07 
       3.22851186e-08       1.39061929e-08       2.46634134e-07 
      -3.62032837e-08       1.42475765e-08       2.46634118e-07 
      -3.22969447e-08       1.42475765e-08       2.46975503e-07 
       3.61914576e-08       1.39061930e-08       2.46975519e-07 
       3.22851186e-08       1.39061930e-08       2.46634134e-07 
      -3.62032837e-08       1.42475765e-08       2.46634118e-07 
      -3.22969446e-08       1.42475765e-08       2.46975503e-07 
       3.93960728e-08       1.67317917e-08       2.96798733e-07 
       3.51438569e-08       1.67317916e-08       2.96426803e-07 
      -3.94086752e-08       1.71037197e-08       2.96426784e-07 
      -3.51564593e-08       1.71037197e-08       2.96798714e-07 
       3.93960728e-08       1.67317917e-08       2.96798733e-07 
       3.51438569e-08       1.67317916e-08       2.96426803e-07 
      -3.94086752e-08       1.71037197e-08       2.96426784e-07 
      -3.51564593e-08       1.71037197e-08       2.96798714e-07 
       4.25325650e-08       1.97956687e-08       3.50799592e-07 
       3.79418237e-08       1.97956686e-08       3.50397117e-07 
      -4.25459488e-08       2.01981411e-08       3.50397094e-07 
      -3.79552076e-08       2.01981412e-08       3.50799569e-07 
       4.25325650e-08       1.97956687e-08       3.50799592e-07 
       3.79418237e-08       1.97956686e-08       3.50397117e-07 
      -4.25459488e-08       2.01981411e-08       3.50397094e-07 
      -3.79552076e-08       2.01981412e-08       3.50799569e-07 
       4.56009335e-08       2.30927050e-08       4.08888348e-07 
       4.06790184e-08       2.30927050e-08       4.08455328e-07 
      -4.56151048e-08       2.35257219e-08       4.08455302e-07 
      -4.06931895e-08       2.35257220e-08       4.08888322e-07 
       4.56009335e-08       2.30927050e-08       4.08888348e-07 
       4.06790184e-08       2.30927050e-08       4.08455328e-07 
      -4.56151048e-08       2.35257219e-08       4.08455302e-07 
      -4.06931895e-08       2.35257220e-08       4.08888322e-07 
       4.86011791e-08       2.66177819e-08       4.70975254e-07 
       4.33554415e-08       2.66177818e-08       4.70511689e-07 
      -4.86161429e-08       2.70813433e-08       4.70511660e-07 
      -4.33704050e-08       2.70813434e-08       4.70975225e-07 
       4.86011791e-08       2.66177819e-08       4.70975254e-07 
       4.33554415e-08       2.66177818e-08       4.70511689e-07 
      -4.86161429e-08       2.70813433e-08       4.70511660e-07 
      -4.33704050e-08       2.70813434e-08       4.70975225e-07 
       5.15333012e-08       3.03657805e-08       5.36970563e-07 
       4.59710927e-08       3.03657804e-08       5.36476453e-07 
      -5.15490632e-08       3.08598863e-08       5.36476420e-07 
      -4.59868543e-08       3.08598864e-08       5.36970530e-07 
       5.15333012e-08       3.03657805e-08       5.36970563e-07 
       4.59710927e-08       3.03657804e-08       5.36476453e-07 
      -5.15490632e-08       3.08598863e-08       5.36476420e-07 
      -4.59868543e-08       3.08598864e-08       5.36970530e-07 
       5.43973004e-08       3.43315818e-08       6.06784528e-07 
       4.85259721e-08       3.43315817e-08       6.06259873e-07 
      -5.44138656e-08       3.48562321e-08       6.06259836e-07 
      -4.85425373e-08       3.48562322e-08       6.06784491e-07 
       5.43973004e-08       3.43315818e-08       6.06784528e-07 
       4.85259721e-08       3.43315817e-08       6.06259873e-07 
      -5.44138656e-08       3.48562321e-08       6.06259836e-07 
      -4.85425373e-08       3.48562322e-08       6.06784491e-07 
       5.71931766e-08       3.85100671e-08       6.80327401e-07 
       5.10200799e-08       3.85100670e-08       6.79772202e-07 
      -5.72105499e-08       3.90652618e-08       6.79772161e-07 
      -5.10374532e-08       3.90652619e-08       6.80327360e-07 
       5.71931766e-08       3.85100671e-08       6.80327401e-07 
       5.10200799e-08       3.85100670e-08       6.79772202e-07 
      -5.72105499e-08       3.90652618e-08       6.79772161e-07 
      -5.10374532e-08       3.90652619e-08       6.80327360e-07 
       5.99209300e-08       4.28961174e-08       7.57509436e-07 
       5.34534164e-08       4.28961173e-08       7.56923692e-07 
      -5.99391163e-08       4.34818565e-08       7.56923647e-07 
      -5.34716027e-08       4.34818567e-08       7.57509391e-07 
       5.99209300e-08       4.28961174e-08       7.57509436e-07 
       5.34534164e-08       4.28961173e-08       7.56923692e-07 
      -5.99391163e-08       4.34818565e-08       7.56923647e-07 
      -5.34716027e-08       4.34818567e-08       7.57509391e-07 
       6.25805603e-08       4.74846139e-08       8.38240885e-07 
       5.58259812e-08       4.74846138e-08       8.37624595e-07 
      -6.25995644e-08       4.81008975e-08       8.37624547e-07 
      -5.58449853e-08       4.81008976e-08       8.38240836e-07 
       6.25805603e-08       4.74846139e-08       8.38240885e-07 
       5.58259812e-08       4.74846138e-08       8.37624595e-07 
      -6.25995644e-08       4.81008975e-08       8.37624547e-07 
      -5.58449853e-08       4.81008976e-08       8.38240836e-07 
       6.51720677e-08       5.22704378e-08       9.22432000e-07 
       5.81377746e-08       5.22704376e-08       9.21785166e-07 
      -6.51918945e-08       5.29172657e-08       9.21785113e-07 
      -5.81576014e-08       5.29172659e-08       9.22431947e-07 
       6.51720673e-08       5.22704377e-08       9.22432000e-07 
       5.81377742e-08       5.22704376e-08       9.21785166e-07 
      -6.51918948e-08       5.29172657e-08       9.21785113e-07 
      -5.81576016e-08       5.29172659e-08       9.22431947e-07 
       6.76996064e-08       5.72503673e-08       1.00999300e-06 
       6.03925181e-08       5.72503671e-08       1.00931921e-06 
      -6.77199665e-08       5.79241460e-08       1.00931916e-06 
      -6.04128783e-08       5.79241462e-08       1.00999294e-06 
       6.76996064e-08       5.72503673e-08       1.00999300e-06 
       6.03925181e-08       5.72503671e-08       1.00931921e-06 
      -6.77199665e-08       5.79241460e-08       1.00931916e-06 
      -6.04128783e-08       5.79241462e-08       1.00999294e-06 
       7.01670357e-08       6.24179885e-08       1.10084473e-06 
       6.25936392e-08       6.24179884e-08       1.10014399e-06 
      -7.01879350e-08       6.31187181e-08       1.10014393e-06 
      -6.26145384e-08       6.31187183e-08       1.10084467e-06 
       7.01670357e-08       6.24179885e-08       1.10084473e-06 
       6.25936392e-08       6.24179884e-08       1.10014399e-06 
      -7.01879350e-08       6.31187181e-08       1.10014393e-06 
      -6.26145384e-08       6.31187183e-08       1.10084467e-06 
       7.25743559e-08       6.77687850e-08       1.19490800e-06 
       6.47411373e-08       6.77687848e-08       1.19418031e-06 
      -7.25958005e-08       6.84964653e-08       1.19418025e-06 
      -6.47625815e-08       6.84964655e-08       1.19490793e-06 
       7.25743559e-08       6.77687850e-08       1.19490800e-06 
       6.47411373e-08       6.77687848e-08       1.19418031e-06 
      -7.25958005e-08       6.84964653e-08       1.19418025e-06 
      -6.47625815e-08       6.84964655e-08       1.19490793e-06 
       7.49215663e-08       7.32982400e-08       1.29210362e-06 
       6.68350117e-08       7.32982398e-08       1.29134899e-06 
      -7.49435629e-08       7.40528711e-08       1.29134892e-06 
      -6.68570084e-08       7.40528713e-08       1.29210355e-06 
       7.49215663e-08       7.32982400e-08       1.29210362e-06 
       6.68350117e-08       7.32982398e-08       1.29134899e-06 
      -7.49435629e-08       7.40528711e-08       1.29134892e-06 
      -6.68570084e-08       7.40528713e-08       1.29210355e-06 
       7.72086670e-08       7.90018369e-08       1.39235241e-06 
       6.88752637e-08       7.90018367e-08       1.39157082e-06 
      -7.72312219e-08       7.97834187e-08       1.39157075e-06 
      -6.88978190e-08       7.97834189e-08       1.39235234e-06 
       7.72086670e-08       7.90018369e-08       1.39235241e-06 
       6.88752637e-08       7.90018367e-08       1.39157082e-06 
      -7.72312219e-08       7.97834187e-08       1.39157075e-06 
      -6.88978190e-08       7.97834189e-08       1.39235234e-06 
       7.94356581e-08       8.48750590e-08       1.49557518e-06 
       7.08618928e-08       8.48750587e-08       1.49476664e-06 
      -7.94587778e-08       8.56835915e-08       1.49476656e-06 
      -7.08850125e-08       8.56835918e-08       1.49557510e-06 
       7.94356581e-08       8.48750590e-08       1.49557518e-06 
       7.08618928e-08       8.48750587e-08       1.49476664e-06 
      -7.94587778e-08       8.56835915e-08       1.49476656e-06 
      -7.08850125e-08       8.56835918e-08       1.49557510e-06 
       8.16025403e-08       9.09133896e-08       1.60169273e-06 
       7.27948990e-08       9.09133894e-08       1.60085724e-06 
      -8.16262302e-08       9.17488730e-08       1.60085716e-06 
      -7.28185894e-08       9.17488732e-08       1.60169265e-06 
       8.16025403e-08       9.09133896e-08       1.60169273e-06 
       7.27948990e-08       9.09133894e-08       1.60085724e-06 
      -8.16262302e-08       9.17488730e-08       1.60085716e-06 
      -7.28185894e-08       9.17488732e-08       1.60169265e-06 
       8.37093137e-08       9.71123122e-08       1.71062589e-06 
       7.46742832e-08       9.71123119e-08       1.70976344e-06 
      -8.37335792e-08       9.79747463e-08       1.70976335e-06 
      -7.46985487e-08       9.79747466e-08       1.71062580e-06 
       8.37093137e-08       9.71123122e-08       1.71062589e-06 
       7.46742832e-08       9.71123119e-08       1.70976344e-06 
      -8.37335792e-08       9.79747463e-08       1.70976335e-06 
      -7.46985487e-08       9.79747466e-08       1.71062580e-06 
       8.57559774e-08       1.03467310e-07       1.82229545e-06 
       7.65000441e-08       1.03467310e-07       1.82140605e-06 
      -8.57808247e-08       1.04356695e-07       1.82140596e-06 
      -7.65248913e-08       1.04356695e-07       1.82229536e-06 
       8.57559774e-08       1.03467310e-07       1.82229545e-06 
       7.65000441e-08       1.03467310e-07       1.82140605e-06 
      -8.57808247e-08       1.04356695e-07       1.82140596e-06 
      -7.65248913e-08       1.04356695e-07       1.82229536e-06 
       8.77425324e-08       1.09973867e-07       1.93662223e-06 
       7.82721825e-08       1.09973866e-07       1.93570588e-06 
      -8.77679662e-08       1.10890202e-07       1.93570579e-06 
      -7.82976173e-08       1.10890202e-07       1.93662213e-06 
       8.77425324e-08       1.09973867e-07       1.93662223e-06 
       7.82721830e-08       1.09973866e-07       1.93570588e-06 
      -8.77679662e-08       1.10890202e-07       1.93570579e-06 
      -7.82976168e-08       1.10890202e-07       1.93662213e-06 
       8.96730841e-08       1.16629362e-07       2.05352701e-06 
       7.99943725e-08       1.16629362e-07       2.05258730e-06 
      -8.96989123e-08       1.17569055e-07       2.05258720e-06 
      -8.00202011e-08       1.17569055e-07       2.05352691e-06 
       8.96730841e-08       1.16629362e-07       2.05352701e-06 
       7.99943725e-08       1.16629362e-07       2.05258730e-06 
      -8.96989123e-08       1.17569055e-07       2.05258720e-06 
      -8.00202011e-08       1.17569055e-07       2.05352691e-06 
       9.15515406e-08       1.23427985e-07       2.17294119e-06 
       8.16700885e-08       1.23427985e-07       2.17197813e-06 
      -9.15777698e-08       1.24391035e-07       2.17197802e-06 
      -8.16963182e-08       1.24391036e-07       2.17294109e-06 
       9.15515406e-08       1.23427985e-07       2.17294119e-06 
       8.16700885e-08       1.23427985e-07       2.17197813e-06 
      -9.15777698e-08       1.24391035e-07       2.17197802e-06 
      -8.16963182e-08       1.24391036e-07       2.17294109e-06 
       9.33779023e-08       1.30365822e-07       2.29479614e-06 
       8.32993314e-08       1.30365821e-07       2.29380972e-06 
      -9.34045379e-08       1.31352229e-07       2.29380961e-06 
      -8.33259670e-08       1.31352229e-07       2.29479603e-06 
       9.33779023e-08       1.30365822e-07       2.29479614e-06 
       8.32993314e-08       1.30365821e-07       2.29380972e-06 
      -9.34045379e-08       1.31352229e-07       2.29380961e-06 
      -8.33259670e-08       1.31352229e-07       2.29479603e-06 
       9.51521679e-08       1.37438957e-07       2.41902324e-06 
       8.48821005e-08       1.37438956e-07       2.41801346e-06 
      -9.51792170e-08       1.38448721e-07       2.41801335e-06 
      -8.49091490e-08       1.38448721e-07       2.41902312e-06 
       9.51521679e-08       1.37438957e-07       2.41902324e-06 
       8.48821005e-08       1.37438956e-07       2.41801346e-06 
      -9.51792170e-08       1.38448721e-07       2.41801335e-06 
      -8.49091490e-08       1.38448721e-07       2.41902312e-06 
       9.68743388e-08       1.44643476e-07       2.54555384e-06 
       8.64183956e-08       1.44643476e-07       2.54452071e-06 
      -9.69018070e-08       1.45676598e-07       2.54452059e-06 
      -8.64458638e-08       1.45676598e-07       2.54555373e-06 
       9.68743388e-08       1.44643476e-07       2.54555384e-06 
       8.64183956e-08       1.44643476e-07       2.54452071e-06 
      -9.69018070e-08       1.45676598e-07       2.54452059e-06 
      -8.64458638e-08       1.45676598e-07       2.54555373e-06 
       9.85444149e-08       1.51975465e-07       2.67431933e-06 
       8.79082180e-08       1.51975465e-07       2.67326284e-06 
      -9.85723076e-08       1.53031944e-07       2.67326272e-06 
      -8.79361108e-08       1.53031944e-07       2.67431921e-06 
       9.85444149e-08       1.51975465e-07       2.67431933e-06 
       8.79082180e-08       1.51975465e-07       2.67326284e-06 
      -9.85723076e-08       1.53031944e-07       2.67326272e-06 
      -8.79361108e-08       1.53031944e-07       2.67431921e-06 
       1.00162396e-07       1.59431010e-07       2.80525107e-06 
       8.93515666e-08       1.59431009e-07       2.80417122e-06 
      -1.00190719e-07       1.60510846e-07       2.80417110e-06 
      -8.93798902e-08       1.60510846e-07       2.80525095e-06 
       1.00162396e-07       1.59431010e-07       2.80525107e-06 
       8.93515666e-08       1.59431009e-07       2.80417122e-06 
      -1.00190719e-07       1.60510846e-07       2.80417110e-06 
      -8.93798902e-08       1.60510846e-07       2.80525095e-06 
       1.01728282e-07       1.67006195e-07       2.93828043e-06 
       9.07484430e-08       1.67006195e-07       2.93717722e-06 
      -1.01757040e-07       1.68109388e-07       2.93717709e-06 
      -9.07772009e-08       1.68109389e-07       2.93828030e-06 
       1.01728282e-07       1.67006195e-07       2.93828043e-06 
       9.07484430e-08       1.67006195e-07       2.93717722e-06 