# vtk DataFile Version 2.0
./output/onsasExample_nonLinearCantileverBlade_staitc3D_pitch numElements=10/onsasExample_nonLinearCantileverBlade_staitc3D_pitch numElements=10_0020.vtk
ASCII
DATASET UNSTRUCTURED_GRID

POINTS 800 float
      -2.924996e-25      -7.180703e-02      -7.180703e-02 
      -2.284268e-24       7.180703e-02      -7.180703e-02 
       2.924996e-25       7.180703e-02       7.180703e-02 
       2.284268e-24      -7.180703e-02       7.180703e-02 
       1.000000e-01      -7.180703e-02      -7.180703e-02 
       1.000000e-01       7.180703e-02      -7.180703e-02 
       1.000000e-01       7.180703e-02       7.180704e-02 
       1.000000e-01      -7.180703e-02       7.180704e-02 
       1.000000e-01      -7.180703e-02      -7.180703e-02 
       1.000000e-01       7.180703e-02      -7.180703e-02 
       1.000000e-01       7.180703e-02       7.180704e-02 
       1.000000e-01      -7.180703e-02       7.180704e-02 
       2.000000e-01      -7.180703e-02      -7.180702e-02 
       2.000000e-01       7.180703e-02      -7.180702e-02 
       2.000000e-01       7.180703e-02       7.180704e-02 
       2.000000e-01      -7.180703e-02       7.180704e-02 
       2.000000e-01      -7.180703e-02      -7.180702e-02 
       2.000000e-01       7.180703e-02      -7.180702e-02 
       2.000000e-01       7.180703e-02       7.180704e-02 
       2.000000e-01      -7.180703e-02       7.180704e-02 
       3.000000e-01      -7.180703e-02      -7.180701e-02 
       3.000000e-01       7.180703e-02      -7.180701e-02 
       3.000000e-01       7.180704e-02       7.180705e-02 
       3.000000e-01      -7.180703e-02       7.180705e-02 
       3.000000e-01      -7.180703e-02      -7.180701e-02 
       3.000000e-01       7.180703e-02      -7.180701e-02 
       3.000000e-01       7.180704e-02       7.180705e-02 
       3.000000e-01      -7.180703e-02       7.180705e-02 
       4.000000e-01      -7.180703e-02      -7.180700e-02 
       4.000000e-01       7.180704e-02      -7.180700e-02 
       4.000000e-01       7.180704e-02       7.180707e-02 
       4.000000e-01      -7.180703e-02       7.180707e-02 
       4.000000e-01      -7.180703e-02      -7.180700e-02 
       4.000000e-01       7.180704e-02      -7.180700e-02 
       4.000000e-01       7.180704e-02       7.180707e-02 
       4.000000e-01      -7.180703e-02       7.180707e-02 
       5.000000e-01      -7.180703e-02      -7.180698e-02 
       5.000000e-01       7.180704e-02      -7.180698e-02 
       5.000000e-01       7.180704e-02       7.180709e-02 
       5.000000e-01      -7.180703e-02       7.180709e-02 
       5.000000e-01      -7.180703e-02      -7.180698e-02 
       5.000000e-01       7.180704e-02      -7.180698e-02 
       5.000000e-01       7.180704e-02       7.180709e-02 
       5.000000e-01      -7.180703e-02       7.180709e-02 
       6.000000e-01      -7.180703e-02      -7.180695e-02 
       6.000000e-01       7.180704e-02      -7.180695e-02 
       6.000000e-01       7.180704e-02       7.180711e-02 
       6.000000e-01      -7.180703e-02       7.180711e-02 
       6.000000e-01      -7.180703e-02      -7.180695e-02 
       6.000000e-01       7.180704e-02      -7.180695e-02 
       6.000000e-01       7.180704e-02       7.180711e-02 
       6.000000e-01      -7.180703e-02       7.180711e-02 
       7.000000e-01      -7.180702e-02      -7.180692e-02 
       7.000000e-01       7.180704e-02      -7.180692e-02 
       7.000000e-01       7.180704e-02       7.180714e-02 
       7.000000e-01      -7.180702e-02       7.180714e-02 
       7.000000e-01      -7.180702e-02      -7.180692e-02 
       7.000000e-01       7.180704e-02      -7.180692e-02 
       7.000000e-01       7.180704e-02       7.180714e-02 
       7.000000e-01      -7.180702e-02       7.180714e-02 
       8.000000e-01      -7.180702e-02      -7.180689e-02 
       8.000000e-01       7.180705e-02      -7.180689e-02 
       8.000000e-01       7.180705e-02       7.180717e-02 
       8.000000e-01      -7.180702e-02       7.180717e-02 
       8.000000e-01      -7.180702e-02      -7.180689e-02 
       8.000000e-01       7.180705e-02      -7.180689e-02 
       8.000000e-01       7.180705e-02       7.180717e-02 
       8.000000e-01      -7.180702e-02       7.180717e-02 
       9.000000e-01      -7.180702e-02      -7.180686e-02 
       9.000000e-01       7.180705e-02      -7.180686e-02 
       9.000000e-01       7.180705e-02       7.180721e-02 
       9.000000e-01      -7.180702e-02       7.180721e-02 
       9.000000e-01      -7.180702e-02      -7.180686e-02 
       9.000000e-01       7.180705e-02      -7.180686e-02 
       9.000000e-01       7.180705e-02       7.180721e-02 
       9.000000e-01      -7.180702e-02       7.180721e-02 
       1.000000e+00      -7.180701e-02      -7.180681e-02 
       1.000000e+00       7.180705e-02      -7.180682e-02 
       1.000000e+00       7.180705e-02       7.180725e-02 
       1.000000e+00      -7.180701e-02       7.180725e-02 
       1.000000e+00      -7.180701e-02      -7.180681e-02 
       1.000000e+00       7.180705e-02      -7.180682e-02 
       1.000000e+00       7.180705e-02       7.180725e-02 
       1.000000e+00      -7.180701e-02       7.180725e-02 
       1.100000e+00      -7.180701e-02      -7.180677e-02 
       1.100000e+00       7.180706e-02      -7.180677e-02 
       1.100000e+00       7.180706e-02       7.180729e-02 
       1.100000e+00      -7.180701e-02       7.180730e-02 
       1.100000e+00      -7.180701e-02      -7.180677e-02 
       1.100000e+00       7.180706e-02      -7.180677e-02 
       1.100000e+00       7.180706e-02       7.180729e-02 
       1.100000e+00      -7.180701e-02       7.180730e-02 
       1.200000e+00      -7.180700e-02      -7.180672e-02 
       1.200000e+00       7.180706e-02      -7.180672e-02 
       1.200000e+00       7.180706e-02       7.180734e-02 
       1.200000e+00      -7.180700e-02       7.180734e-02 
       1.200000e+00      -7.180700e-02      -7.180672e-02 
       1.200000e+00       7.180706e-02      -7.180672e-02 
       1.200000e+00       7.180706e-02       7.180734e-02 
       1.200000e+00      -7.180700e-02       7.180734e-02 
       1.300000e+00      -7.180700e-02      -7.180667e-02 
       1.300000e+00       7.180707e-02      -7.180667e-02 
       1.300000e+00       7.180707e-02       7.180739e-02 
       1.300000e+00      -7.180700e-02       7.180739e-02 
       1.300000e+00      -7.180700e-02      -7.180667e-02 
       1.300000e+00       7.180707e-02      -7.180667e-02 
       1.300000e+00       7.180707e-02       7.180739e-02 
       1.300000e+00      -7.180700e-02       7.180739e-02 
       1.400000e+00      -7.180699e-02      -7.180662e-02 
       1.400000e+00       7.180707e-02      -7.180662e-02 
       1.400000e+00       7.180707e-02       7.180745e-02 
       1.400000e+00      -7.180699e-02       7.180745e-02 
       1.400000e+00      -7.180699e-02      -7.180662e-02 
       1.400000e+00       7.180707e-02      -7.180662e-02 
       1.400000e+00       7.180707e-02       7.180745e-02 
       1.400000e+00      -7.180699e-02       7.180745e-02 
       1.500000e+00      -7.180699e-02      -7.180656e-02 
       1.500000e+00       7.180708e-02      -7.180656e-02 
       1.500000e+00       7.180708e-02       7.180751e-02 
       1.500000e+00      -7.180699e-02       7.180751e-02 
       1.500000e+00      -7.180699e-02      -7.180656e-02 
       1.500000e+00       7.180708e-02      -7.180656e-02 
       1.500000e+00       7.180708e-02       7.180751e-02 
       1.500000e+00      -7.180699e-02       7.180751e-02 
       1.600000e+00      -7.180698e-02      -7.180650e-02 
       1.600000e+00       7.180708e-02      -7.180650e-02 
       1.600000e+00       7.180708e-02       7.180757e-02 
       1.600000e+00      -7.180698e-02       7.180757e-02 
       1.600000e+00      -7.180698e-02      -7.180650e-02 
       1.600000e+00       7.180708e-02      -7.180650e-02 
       1.600000e+00       7.180708e-02       7.180757e-02 
       1.600000e+00      -7.180698e-02       7.180757e-02 
       1.700000e+00      -7.180698e-02      -7.180643e-02 
       1.700000e+00       7.180709e-02      -7.180643e-02 
       1.700000e+00       7.180709e-02       7.180763e-02 
       1.700000e+00      -7.180698e-02       7.180763e-02 
       1.700000e+00      -7.180698e-02      -7.180643e-02 
       1.700000e+00       7.180709e-02      -7.180643e-02 
       1.700000e+00       7.180709e-02       7.180763e-02 
       1.700000e+00      -7.180698e-02       7.180763e-02 
       1.800000e+00      -7.180697e-02      -7.180636e-02 
       1.800000e+00       7.180710e-02      -7.180636e-02 
       1.800000e+00       7.180710e-02       7.180770e-02 
       1.800000e+00      -7.180697e-02       7.180770e-02 
       1.800000e+00      -7.180697e-02      -7.180636e-02 
       1.800000e+00       7.180710e-02      -7.180636e-02 
       1.800000e+00       7.180710e-02       7.180770e-02 
       1.800000e+00      -7.180697e-02       7.180770e-02 
       1.900000e+00      -7.180696e-02      -7.180629e-02 
       1.900000e+00       7.180710e-02      -7.180629e-02 
       1.900000e+00       7.180710e-02       7.180777e-02 
       1.900000e+00      -7.180696e-02       7.180777e-02 
       1.900000e+00      -7.180696e-02      -7.180629e-02 
       1.900000e+00       7.180710e-02      -7.180629e-02 
       1.900000e+00       7.180710e-02       7.180777e-02 
       1.900000e+00      -7.180696e-02       7.180777e-02 
       2.000000e+00      -7.180696e-02      -7.180622e-02 
       2.000000e+00       7.180711e-02      -7.180622e-02 
       2.000000e+00       7.180711e-02       7.180785e-02 
       2.000000e+00      -7.180696e-02       7.180785e-02 
       2.000000e+00      -7.180696e-02      -7.180622e-02 
       2.000000e+00       7.180711e-02      -7.180622e-02 
       2.000000e+00       7.180711e-02       7.180785e-02 
       2.000000e+00      -7.180696e-02       7.180785e-02 
       2.100000e+00      -7.180695e-02      -7.180614e-02 
[...]
POINT_DATA       800 
VECTORS Displacements float
      -2.92499623e-25       0.00000000e+00       0.00000000e+00 
      -2.28426769e-24       0.00000000e+00       0.00000000e+00 
       2.92499623e-25       0.00000000e+00       0.00000000e+00 
       2.28426769e-24       0.00000000e+00       0.00000000e+00 
       3.62391384e-09       1.92570779e-10       2.33922942e-09 
       2.99706840e-09       1.92570765e-10       2.28649405e-09 
      -3.62491452e-09       2.45306109e-10       2.28649388e-09 
      -2.99806908e-09       2.45306123e-10       2.33922927e-09 
       3.62391384e-09       1.92570779e-10       2.33922942e-09 
       2.99706840e-09       1.92570765e-10       2.28649405e-09 
      -3.62491452e-09       2.45306109e-10       2.28649388e-09 
      -2.99806908e-09       2.45306123e-10       2.33922927e-09 
       7.17818513e-09       8.17427334e-10       9.24511730e-09 
       5.93653884e-09       8.17427320e-10       9.13964653e-09 
      -7.18018850e-09       9.22897980e-10       9.13964593e-09 
      -5.93854219e-09       9.22897994e-10       9.24511669e-09 
       7.17818513e-09       8.17427334e-10       9.24511730e-09 
       5.93653884e-09       8.17427320e-10       9.13964653e-09 
      -7.18018850e-09       9.22897980e-10       9.13964593e-09 
      -5.93854219e-09       9.22897994e-10       9.24511669e-09 
       1.06628139e-08       1.86618289e-09       2.06290661e-08 
       8.81841128e-09       1.86618289e-09       2.04708599e-08 
      -1.06658219e-08       2.02438885e-09       2.04708586e-08 
      -8.82141937e-09       2.02438886e-09       2.06290648e-08 
       1.06628139e-08       1.86618289e-09       2.06290661e-08 
       8.81841128e-09       1.86618289e-09       2.04708599e-08 
      -1.06658219e-08       2.02438885e-09       2.04708586e-08 
      -8.82141937e-09       2.02438886e-09       2.06290648e-08 
       1.40778002e-08       3.33045078e-09       3.64024783e-08 
       1.16426858e-08       3.33045075e-09       3.61915366e-08 
      -1.40818148e-08       3.54139194e-09       3.61915343e-08 
      -1.16467004e-08       3.54139197e-09       3.64024760e-08 
       1.40778002e-08       3.33045078e-09       3.64024783e-08 
       1.16426858e-08       3.33045075e-09       3.61915366e-08 
      -1.40818148e-08       3.54139194e-09       3.61915343e-08 
      -1.16467004e-08       3.54139197e-09       3.64024760e-08 
       1.74231439e-08       5.20184412e-09       5.64767564e-08 
       1.44093625e-08       5.20184408e-09       5.62130792e-08 
      -1.74281671e-08       5.46552054e-09       5.62130757e-08 
      -1.44143855e-08       5.46552058e-09       5.64767528e-08 
       1.74231439e-08       5.20184412e-09       5.64767564e-08 
       1.44093625e-08       5.20184408e-09       5.62130792e-08 
      -1.74281671e-08       5.46552054e-09       5.62130757e-08 
      -1.44143855e-08       5.46552058e-09       5.64767528e-08 
       2.06988453e-08       7.47197623e-09       8.07633028e-08 
       1.71184412e-08       7.47197619e-09       8.04468901e-08 
      -2.07048787e-08       7.78838785e-09       8.04468852e-08 
      -1.71244747e-08       7.78838791e-09       8.07632978e-08 
       2.06988453e-08       7.47197623e-09       8.07633028e-08 
       1.71184412e-08       7.47197619e-09       8.04468901e-08 
      -2.07048787e-08       7.78838785e-09       8.04468852e-08 
      -1.71244747e-08       7.78838791e-09       8.07632978e-08 
       2.39049044e-08       1.01324603e-08       1.09173520e-07 
       1.97699223e-08       1.01324603e-08       1.08804372e-07 
      -2.39119496e-08       1.05016072e-08       1.08804365e-07 
      -1.97769676e-08       1.05016072e-08       1.09173513e-07 
       2.39049044e-08       1.01324603e-08       1.09173520e-07 
       1.97699223e-08       1.01324603e-08       1.08804372e-07 
      -2.39119496e-08       1.05016072e-08       1.08804365e-07 
      -1.97769676e-08       1.05016072e-08       1.09173513e-07 
       2.70413208e-08       1.31749097e-08       1.41618810e-07 
       2.23638050e-08       1.31749096e-08       1.41196927e-07 
      -2.70493803e-08       1.35967917e-08       1.41196918e-07 
      -2.23718645e-08       1.35967917e-08       1.41618802e-07 
       2.70413208e-08       1.31749097e-08       1.41618810e-07 
       2.23638050e-08       1.31749096e-08       1.41196927e-07 
      -2.70493803e-08       1.35967917e-08       1.41196918e-07 
      -2.23718645e-08       1.35967917e-08       1.41618802e-07 
       3.01080950e-08       1.65909375e-08       1.78010577e-07 
       2.49000903e-08       1.65909374e-08       1.77535958e-07 
      -3.01171699e-08       1.70655546e-08       1.77535947e-07 
      -2.49091653e-08       1.70655547e-08       1.78010566e-07 
       3.01080950e-08       1.65909375e-08       1.78010577e-07 
       2.49000903e-08       1.65909374e-08       1.77535958e-07 
      -3.01171699e-08       1.70655546e-08       1.77535947e-07 
      -2.49091653e-08       1.70655547e-08       1.78010566e-07 
       3.31052268e-08       2.03721571e-08       2.18260221e-07 
       2.73787775e-08       2.03721569e-08       2.17732866e-07 
      -3.31153189e-08       2.08995093e-08       2.17732854e-07 
      -2.73888699e-08       2.08995094e-08       2.18260208e-07 
       3.31052266e-08       2.03721570e-08       2.18260221e-07 
       2.73787777e-08       2.03721569e-08       2.17732866e-07 
      -3.31153190e-08       2.08995093e-08       2.17732854e-07 
      -2.73888701e-08       2.08995094e-08       2.18260208e-07 
       3.60365602e-08       2.45131044e-08       2.62277925e-07 
       2.98030776e-08       2.45131043e-08       2.61703386e-07 
      -3.60473138e-08       2.50876404e-08       2.61703371e-07 
      -2.98138312e-08       2.50876405e-08       2.62277910e-07 
       3.60365602e-08       2.45131044e-08       2.62277925e-07 
       2.98030776e-08       2.45131043e-08       2.61703386e-07 
      -3.60473138e-08       2.50876404e-08       2.61703371e-07 
      -2.98138312e-08       2.50876405e-08       2.62277910e-07 
       3.89055810e-08       2.90033528e-08       3.09985638e-07 
       3.21758413e-08       2.90033527e-08       3.09363915e-07 
      -3.89169998e-08       2.96250725e-08       3.09363897e-07 
      -3.21872602e-08       2.96250726e-08       3.09985620e-07 
       3.89055810e-08       2.90033528e-08       3.09985638e-07 
       3.21758413e-08       2.90033527e-08       3.09363915e-07 
      -3.89169998e-08       2.96250725e-08       3.09363897e-07 
      -3.21872602e-08       2.96250726e-08       3.09985620e-07 
       4.17122885e-08       3.38353984e-08       3.61304089e-07 
       3.44970685e-08       3.38353982e-08       3.60635182e-07 
      -4.17243773e-08       3.45043017e-08       3.60635161e-07 
      -3.45091573e-08       3.45043018e-08       3.61304069e-07 
       4.17122885e-08       3.38353984e-08       3.61304089e-07 
       3.44970685e-08       3.38353982e-08       3.60635182e-07 
      -4.17243773e-08       3.45043017e-08       3.60635161e-07 
      -3.45091573e-08       3.45043018e-08       3.61304069e-07 
       4.44566832e-08       3.90017370e-08       4.16154006e-07 
       3.67667596e-08       3.90017369e-08       4.15437914e-07 
      -4.44694459e-08       3.97178240e-08       4.15437891e-07 
      -3.67795223e-08       3.97178242e-08       4.16153983e-07 
       4.44566832e-08       3.90017370e-08       4.16154006e-07 
       3.67667596e-08       3.90017369e-08       4.15437914e-07 
      -4.44694459e-08       3.97178240e-08       4.15437891e-07 
      -3.67795223e-08       3.97178242e-08       4.16153983e-07 
       4.71387647e-08       4.44948650e-08       4.74456118e-07 
       3.89849142e-08       4.44948648e-08       4.73692842e-07 
      -4.71522061e-08       4.52581356e-08       4.73692816e-07 
      -3.89983557e-08       4.52581358e-08       4.74456092e-07 
       4.71387647e-08       4.44948650e-08       4.74456118e-07 
       3.89849142e-08       4.44948648e-08       4.73692842e-07 
      -4.71522061e-08       4.52581356e-08       4.73692816e-07 
      -3.89983557e-08       4.52581358e-08       4.74456092e-07 
       4.97585335e-08       5.03072781e-08       5.36131153e-07 
       4.11515328e-08       5.03072779e-08       5.35320693e-07 
      -4.97726573e-08       5.11177324e-08       5.35320664e-07 
      -4.11656567e-08       5.11177326e-08       5.36131124e-07 
       4.97585335e-08       5.03072781e-08       5.36131153e-07 
       4.11515328e-08       5.03072779e-08       5.35320693e-07 
      -4.97726573e-08       5.11177324e-08       5.35320664e-07 
      -4.11656567e-08       5.11177326e-08       5.36131124e-07 
       5.23159895e-08       5.64314727e-08       6.01099840e-07 
       4.32666154e-08       5.64314724e-08       6.00242196e-07 
      -5.23307995e-08       5.72891105e-08       6.00242164e-07 
      -4.32814253e-08       5.72891108e-08       6.01099808e-07 
       5.23159895e-08       5.64314727e-08       6.01099840e-07 
       4.32666154e-08       5.64314724e-08       6.00242196e-07 
      -5.23307995e-08       5.72891105e-08       6.00242164e-07 
      -4.32814253e-08       5.72891108e-08       6.01099808e-07 
       5.48111327e-08       6.28599446e-08       6.69282908e-07 
       4.53301618e-08       6.28599443e-08       6.68378079e-07 
      -5.48266328e-08       6.37647661e-08       6.68378044e-07 
      -4.53456621e-08       6.37647664e-08       6.69282873e-07 
       5.48111327e-08       6.28599446e-08       6.69282908e-07 
       4.53301618e-08       6.28599443e-08       6.68378079e-07 
      -5.48266328e-08       6.37647661e-08       6.68378044e-07 
      -4.53456621e-08       6.37647664e-08       6.69282873e-07 
       5.72439633e-08       6.95851900e-08       7.40601084e-07 
       4.73421724e-08       6.95851897e-08       7.39649071e-07 
      -5.72601571e-08       7.05371951e-08       7.39649033e-07 
      -4.73583661e-08       7.05371954e-08       7.40601046e-07 
       5.72439633e-08       6.95851900e-08       7.40601084e-07 
       4.73421724e-08       6.95851897e-08       7.39649071e-07 
      -5.72601571e-08       7.05371951e-08       7.39649033e-07 
      -4.73583661e-08       7.05371954e-08       7.40601046e-07 
       5.96144809e-08       7.65997049e-08       8.14975098e-07 
       4.93026469e-08       7.65997046e-08       8.13975901e-07 
      -5.96313727e-08       7.75988936e-08       8.13975860e-07 
      -4.93195387e-08       7.75988939e-08       8.14975057e-07 
       5.96144809e-08       7.65997049e-08       8.14975098e-07 
       4.93026469e-08       7.65997046e-08       8.13975901e-07 
      -5.96313727e-08       7.75988936e-08       8.13975860e-07 
      -4.93195387e-08       7.75988939e-08       8.14975057e-07 
       6.19264773e-08       8.38989081e-08       8.92324457e-07 
       5.12147427e-08       8.38989078e-08       8.91283627e-07 
      -6.19438185e-08       8.49397292e-08       8.91283582e-07 
      -5.12320839e-08       8.49397295e-08       8.92324412e-07 
       6.19264773e-08       8.38989081e-08       8.92324457e-07 
       5.12147427e-08       8.38989078e-08       8.91283627e-07 
      -6.19438185e-08       8.49397292e-08       8.91283582e-07 
      -5.12320839e-08       8.49397295e-08       8.92324412e-07 
       6.41834905e-08       9.14732559e-08       9.72580436e-07 
       5.30813642e-08       9.14732555e-08       9.71497973e-07 
      -6.42012870e-08       9.25557092e-08       9.71497925e-07 
      -5.30991606e-08       9.25557096e-08       9.72580388e-07 
       6.41834905e-08       9.14732559e-08       9.72580436e-07 
       5.30813642e-08       9.14732555e-08       9.71497973e-07 
      -6.42012870e-08       9.25557092e-08       9.71497925e-07 
      -5.30991606e-08       9.25557096e-08       9.72580388e-07 
       6.63855220e-08       9.93161269e-08       1.05567309e-06 
       5.49025128e-08       9.93161265e-08       1.05454899e-06 
      -6.64037771e-08       1.00440213e-07       1.05454894e-06 
      -5.49207684e-08       1.00440213e-07       1.05567304e-06 
       6.63855220e-08       9.93161269e-08       1.05567309e-06 
       5.49025128e-08       9.93161265e-08       1.05454899e-06 
      -6.64037771e-08       1.00440213e-07       1.05454894e-06 
      -5.49207684e-08       1.00440213e-07       1.05567304e-06 
       6.85325703e-08       1.07420900e-07       1.14153247e-06 
       5.66781870e-08       1.07420900e-07       1.14036675e-06 
      -6.85512904e-08       1.08586618e-07       1.14036669e-06 
      -5.66969076e-08       1.08586619e-07       1.14153242e-06 
       6.85325703e-08       1.07420900e-07       1.14153247e-06 
       5.66781870e-08       1.07420900e-07       1.14036675e-06 
      -6.85512904e-08       1.08586618e-07       1.14036669e-06 
      -5.66969076e-08       1.08586619e-07       1.14153242e-06 
       7.06246355e-08       1.15780955e-07       1.23008864e-06 
       5.84083875e-08       1.15780954e-07       1.22888128e-06 
      -7.06438259e-08       1.16988305e-07       1.22888122e-06 
      -5.84275779e-08       1.16988305e-07       1.23008858e-06 
       7.06246355e-08       1.15780955e-07       1.23008864e-06 
       5.84083875e-08       1.15780954e-07       1.22888128e-06 
      -7.06438259e-08       1.16988305e-07       1.22888122e-06 
      -5.84275779e-08       1.16988305e-07       1.23008858e-06 
       7.26617189e-08       1.24389669e-07       1.32127165e-06 
       6.00931145e-08       1.24389668e-07       1.32002265e-06 
      -7.26813836e-08       1.25638652e-07       1.32002259e-06 
      -6.01127792e-08       1.25638652e-07       1.32127159e-06 
       7.26617189e-08       1.24389669e-07       1.32127165e-06 
       6.00931145e-08       1.24389668e-07       1.32002265e-06 
      -7.26813836e-08       1.25638652e-07       1.32002259e-06 
      -6.01127792e-08       1.25638652e-07       1.32127159e-06 
       7.46438191e-08       1.33240422e-07       1.41501155e-06 
       6.17323677e-08       1.33240422e-07       1.41372092e-06 
      -7.46639635e-08       1.34531037e-07       1.41372086e-06 
      -6.17525120e-08       1.34531038e-07       1.41501149e-06 
       7.46438191e-08       1.33240422e-07       1.41501155e-06 
       6.17323677e-08       1.33240422e-07       1.41372092e-06 
      -7.46639635e-08       1.34531037e-07       1.41372086e-06 
      -6.17525120e-08       1.34531038e-07       1.41501149e-06 
       7.65709376e-08       1.42326593e-07       1.51123840e-06 
       6.33261479e-08       1.42326592e-07       1.50990614e-06 
      -7.65915646e-08       1.43658840e-07       1.50990607e-06 
      -6.33467745e-08       1.43658841e-07       1.51123833e-06 
       7.65709376e-08       1.42326593e-07       1.51123840e-06 
       6.33261479e-08       1.42326592e-07       1.50990614e-06 
      -7.65915646e-08       1.43658840e-07       1.50990607e-06 
      -6.33467745e-08       1.43658841e-07       1.51123833e-06 
       7.84430734e-08       1.51641561e-07       1.60988225e-06 
       6.48744538e-08       1.51641560e-07       1.60850836e-06 
      -7.84641885e-08       1.53015440e-07       1.60850828e-06 
      -6.48955694e-08       1.53015441e-07       1.60988218e-06 
       7.84430734e-08       1.51641561e-07       1.60988225e-06 
       6.48744538e-08       1.51641560e-07       1.60850836e-06 
      -7.84641885e-08       1.53015440e-07       1.60850828e-06 
      -6.48955694e-08       1.53015441e-07       1.60988218e-06 
       8.02602269e-08       1.61178704e-07       1.71087316e-06 
       6.63772868e-08       1.61178703e-07       1.70945763e-06 
      -8.02818345e-08       1.62594216e-07       1.70945756e-06 
      -6.63988944e-08       1.62594216e-07       1.71087308e-06 
       8.02602269e-08       1.61178704e-07       1.71087316e-06 
       6.63772863e-08       1.61178703e-07       1.70945763e-06 
      -8.02818345e-08       1.62594216e-07       1.70945756e-06 
      -6.63988939e-08       1.62594216e-07       1.71087308e-06 
       8.20261481e-08       1.70934324e-07       1.81413996e-06 
       6.78377621e-08       1.70934323e-07       1.81268835e-06 
      -8.20480830e-08       1.72385917e-07       1.81268827e-06 
      -6.78596970e-08       1.72385918e-07       1.81413988e-06 
       8.20261481e-08       1.70934324e-07       1.81413996e-06 
       6.78377621e-08       1.70934323e-07       1.81268835e-06 
      -8.20480830e-08       1.72385917e-07       1.81268827e-06 
      -6.78596970e-08       1.72385918e-07       1.81413988e-06 
       8.37444172e-08       1.80899760e-07       1.91962325e-06 
       6.92588262e-08       1.80899759e-07       1.91813556e-06 
      -8.37666847e-08       1.82387434e-07       1.91813548e-06 
      -6.92810938e-08       1.82387435e-07       1.91962317e-06 
       8.37444172e-08       1.80899760e-07       1.91962325e-06 
       6.92588262e-08       1.80899759e-07       1.91813556e-06 
      -8.37666847e-08       1.82387434e-07       1.91813548e-06 
      -6.92810938e-08       1.82387435e-07       1.91962317e-06 
       8.54150350e-08       1.91069274e-07       2.02726241e-06 
       7.06404801e-08       1.91069273e-07       2.02573864e-06 
      -8.54376387e-08       1.92593029e-07       2.02573856e-06 
      -7.06630843e-08       1.92593030e-07       2.02726233e-06 
       8.54150350e-08       1.91069274e-07       2.02726241e-06 
       7.06404801e-08       1.91069273e-07       2.02573864e-06 
      -8.54376387e-08       1.92593029e-07       2.02573856e-06 
      -7.06630843e-08       1.92593030e-07       2.02726233e-06 
       8.70380004e-08       2.01437127e-07       2.13699683e-06 
       7.19827229e-08       2.01437126e-07       2.13543698e-06 
      -8.70609465e-08       2.02996964e-07       2.13543689e-06 
      -7.20056690e-08       2.02996964e-07       2.13699675e-06 
       8.70380004e-08       2.01437127e-07       2.13699683e-06 
       7.19827229e-08       2.01437126e-07       2.13543698e-06 
      -8.70609465e-08       2.02996964e-07       2.13543689e-06 
      -7.20056690e-08       2.02996964e-07       2.13699675e-06 
       8.86133140e-08       2.11997581e-07       2.24876589e-06 
       7.32855545e-08       2.11997580e-07       2.24716995e-06 
      -8.86366069e-08       2.13593499e-07       2.24716986e-06 
      -7.33088474e-08       2.13593500e-07       2.24876579e-06 
       8.86133140e-08       2.11997581e-07       2.24876589e-06 
       7.32855545e-08       2.11997580e-07       2.24716995e-06 
      -8.86366069e-08       2.13593499e-07       2.24716986e-06 
      -7.33088474e-08       2.13593500e-07       2.24876579e-06 
       9.01409760e-08       2.22744898e-07       2.36250895e-06 
       7.45489759e-08       2.22744898e-07       2.36087694e-06 
      -9.01646202e-08       2.24376898e-07       2.36087684e-06 
      -7.45726201e-08       2.24376899e-07       2.36250886e-06 
       9.01409760e-08       2.22744898e-07       2.36250895e-06 
       7.45489759e-08       2.22744898e-07       2.36087694e-06 
      -9.01646202e-08       2.24376898e-07       2.36087684e-06 
      -7.45726201e-08       2.24376899e-07       2.36250886e-06 
       9.16209859e-08       2.33673340e-07       2.47816542e-06 
       7.57729861e-08       2.33673339e-07       2.47649732e-06 
      -9.16449858e-08       2.35341421e-07       2.47649722e-06 
      -7.57969860e-08       2.35341422e-07       2.47816532e-06 
       9.16209859e-08       2.33673340e-07       2.47816542e-06 
       7.57729861e-08       2.33673339e-07       2.47649732e-06 
      -9.16449858e-08       2.35341421e-07       2.47649722e-06 
      -7.57969860e-08       2.35341422e-07       2.47816532e-06 
       9.30533450e-08       2.44777168e-07       2.59567466e-06 
       7.69575870e-08       2.44777167e-07       2.59397048e-06 
      -9.30777038e-08       2.46481330e-07       2.59397038e-06 
      -7.69819457e-08       2.46481331e-07       2.59567456e-06 
       9.30533450e-08       2.44777168e-07       2.59567466e-06 
       7.69575870e-08       2.44777167e-07       2.59397048e-06 