# vtk DataFile Version 2.0
./output/onsasExample_nonLinearCantileverBlade_staitc3D_pitch numElements=10/onsasExample_nonLinearCantileverBlade_staitc3D_pitch numElements=10_0025.vtk
ASCII
DATASET UNSTRUCTURED_GRID

POINTS 800 float
       2.323875e-25      -7.180703e-02      -7.180703e-02 
       1.141741e-25       7.180703e-02      -7.180703e-02 
      -2.323875e-25       7.180703e-02       7.180703e-02 
      -1.141741e-25      -7.180703e-02       7.180703e-02 
       1.000000e-01      -7.180703e-02      -7.180703e-02 
       1.000000e-01       7.180703e-02      -7.180703e-02 
       1.000000e-01       7.180703e-02       7.180703e-02 
       1.000000e-01      -7.180703e-02       7.180703e-02 
       1.000000e-01      -7.180703e-02      -7.180703e-02 
       1.000000e-01       7.180703e-02      -7.180703e-02 
       1.000000e-01       7.180703e-02       7.180703e-02 
       1.000000e-01      -7.180703e-02       7.180703e-02 
       2.000000e-01      -7.180703e-02      -7.180703e-02 
       2.000000e-01       7.180703e-02      -7.180703e-02 
       2.000000e-01       7.180704e-02       7.180704e-02 
       2.000000e-01      -7.180703e-02       7.180704e-02 
       2.000000e-01      -7.180703e-02      -7.180703e-02 
       2.000000e-01       7.180703e-02      -7.180703e-02 
       2.000000e-01       7.180704e-02       7.180704e-02 
       2.000000e-01      -7.180703e-02       7.180704e-02 
       3.000000e-01      -7.180703e-02      -7.180703e-02 
       3.000000e-01       7.180704e-02      -7.180703e-02 
       3.000000e-01       7.180704e-02       7.180704e-02 
       3.000000e-01      -7.180703e-02       7.180704e-02 
       3.000000e-01      -7.180703e-02      -7.180703e-02 
       3.000000e-01       7.180704e-02      -7.180703e-02 
       3.000000e-01       7.180704e-02       7.180704e-02 
       3.000000e-01      -7.180703e-02       7.180704e-02 
       4.000000e-01      -7.180703e-02      -7.180702e-02 
       4.000000e-01       7.180704e-02      -7.180702e-02 
       4.000000e-01       7.180704e-02       7.180705e-02 
       4.000000e-01      -7.180703e-02       7.180705e-02 
       4.000000e-01      -7.180703e-02      -7.180702e-02 
       4.000000e-01       7.180704e-02      -7.180702e-02 
       4.000000e-01       7.180704e-02       7.180705e-02 
       4.000000e-01      -7.180703e-02       7.180705e-02 
       5.000000e-01      -7.180702e-02      -7.180701e-02 
       5.000000e-01       7.180704e-02      -7.180701e-02 
       5.000000e-01       7.180704e-02       7.180705e-02 
       5.000000e-01      -7.180702e-02       7.180705e-02 
       5.000000e-01      -7.180702e-02      -7.180701e-02 
       5.000000e-01       7.180704e-02      -7.180701e-02 
       5.000000e-01       7.180704e-02       7.180705e-02 
       5.000000e-01      -7.180702e-02       7.180705e-02 
       6.000000e-01      -7.180702e-02      -7.180700e-02 
       6.000000e-01       7.180705e-02      -7.180700e-02 
       6.000000e-01       7.180705e-02       7.180706e-02 
       6.000000e-01      -7.180702e-02       7.180706e-02 
       6.000000e-01      -7.180702e-02      -7.180700e-02 
       6.000000e-01       7.180705e-02      -7.180700e-02 
       6.000000e-01       7.180705e-02       7.180706e-02 
       6.000000e-01      -7.180702e-02       7.180706e-02 
       7.000000e-01      -7.180701e-02      -7.180699e-02 
       7.000000e-01       7.180705e-02      -7.180699e-02 
       7.000000e-01       7.180706e-02       7.180707e-02 
       7.000000e-01      -7.180701e-02       7.180707e-02 
       7.000000e-01      -7.180701e-02      -7.180699e-02 
       7.000000e-01       7.180705e-02      -7.180699e-02 
       7.000000e-01       7.180706e-02       7.180707e-02 
       7.000000e-01      -7.180701e-02       7.180707e-02 
       8.000000e-01      -7.180700e-02      -7.180698e-02 
       8.000000e-01       7.180706e-02      -7.180698e-02 
       8.000000e-01       7.180706e-02       7.180708e-02 
       8.000000e-01      -7.180700e-02       7.180709e-02 
       8.000000e-01      -7.180700e-02      -7.180698e-02 
       8.000000e-01       7.180706e-02      -7.180698e-02 
       8.000000e-01       7.180706e-02       7.180708e-02 
       8.000000e-01      -7.180700e-02       7.180709e-02 
       9.000000e-01      -7.180700e-02      -7.180697e-02 
       9.000000e-01       7.180707e-02      -7.180697e-02 
       9.000000e-01       7.180707e-02       7.180710e-02 
       9.000000e-01      -7.180700e-02       7.180710e-02 
       9.000000e-01      -7.180700e-02      -7.180697e-02 
       9.000000e-01       7.180707e-02      -7.180697e-02 
       9.000000e-01       7.180707e-02       7.180710e-02 
       9.000000e-01      -7.180700e-02       7.180710e-02 
       1.000000e+00      -7.180699e-02      -7.180695e-02 
       1.000000e+00       7.180708e-02      -7.180695e-02 
       1.000000e+00       7.180708e-02       7.180711e-02 
       1.000000e+00      -7.180699e-02       7.180711e-02 
       1.000000e+00      -7.180699e-02      -7.180695e-02 
       1.000000e+00       7.180708e-02      -7.180695e-02 
       1.000000e+00       7.180708e-02       7.180711e-02 
       1.000000e+00      -7.180699e-02       7.180711e-02 
       1.100000e+00      -7.180698e-02      -7.180694e-02 
       1.100000e+00       7.180709e-02      -7.180694e-02 
       1.100000e+00       7.180709e-02       7.180713e-02 
       1.100000e+00      -7.180698e-02       7.180713e-02 
       1.100000e+00      -7.180698e-02      -7.180694e-02 
       1.100000e+00       7.180709e-02      -7.180694e-02 
       1.100000e+00       7.180709e-02       7.180713e-02 
       1.100000e+00      -7.180698e-02       7.180713e-02 
       1.200000e+00      -7.180697e-02      -7.180692e-02 
       1.200000e+00       7.180710e-02      -7.180692e-02 
       1.200000e+00       7.180710e-02       7.180715e-02 
       1.200000e+00      -7.180697e-02       7.180715e-02 
       1.200000e+00      -7.180697e-02      -7.180692e-02 
       1.200000e+00       7.180710e-02      -7.180692e-02 
       1.200000e+00       7.180710e-02       7.180715e-02 
       1.200000e+00      -7.180697e-02       7.180715e-02 
       1.300000e+00      -7.180696e-02      -7.180690e-02 
       1.300000e+00       7.180711e-02      -7.180690e-02 
       1.300000e+00       7.180711e-02       7.180716e-02 
       1.300000e+00      -7.180696e-02       7.180717e-02 
       1.300000e+00      -7.180696e-02      -7.180690e-02 
       1.300000e+00       7.180711e-02      -7.180690e-02 
       1.300000e+00       7.180711e-02       7.180716e-02 
       1.300000e+00      -7.180696e-02       7.180717e-02 
       1.400000e+00      -7.180695e-02      -7.180688e-02 
       1.400000e+00       7.180712e-02      -7.180688e-02 
       1.400000e+00       7.180712e-02       7.180718e-02 
       1.400000e+00      -7.180695e-02       7.180719e-02 
       1.400000e+00      -7.180695e-02      -7.180688e-02 
       1.400000e+00       7.180712e-02      -7.180688e-02 
       1.400000e+00       7.180712e-02       7.180718e-02 
       1.400000e+00      -7.180695e-02       7.180719e-02 
       1.500000e+00      -7.180694e-02      -7.180686e-02 
       1.500000e+00       7.180713e-02      -7.180686e-02 
       1.500000e+00       7.180713e-02       7.180721e-02 
       1.500000e+00      -7.180694e-02       7.180721e-02 
       1.500000e+00      -7.180694e-02      -7.180686e-02 
       1.500000e+00       7.180713e-02      -7.180686e-02 
       1.500000e+00       7.180713e-02       7.180721e-02 
       1.500000e+00      -7.180694e-02       7.180721e-02 
       1.600000e+00      -7.180693e-02      -7.180684e-02 
       1.600000e+00       7.180714e-02      -7.180684e-02 
       1.600000e+00       7.180714e-02       7.180723e-02 
       1.600000e+00      -7.180692e-02       7.180723e-02 
       1.600000e+00      -7.180693e-02      -7.180684e-02 
       1.600000e+00       7.180714e-02      -7.180684e-02 
       1.600000e+00       7.180714e-02       7.180723e-02 
       1.600000e+00      -7.180692e-02       7.180723e-02 
       1.700000e+00      -7.180691e-02      -7.180681e-02 
       1.700000e+00       7.180715e-02      -7.180681e-02 
       1.700000e+00       7.180716e-02       7.180725e-02 
       1.700000e+00      -7.180691e-02       7.180725e-02 
       1.700000e+00      -7.180691e-02      -7.180681e-02 
       1.700000e+00       7.180715e-02      -7.180681e-02 
       1.700000e+00       7.180716e-02       7.180725e-02 
       1.700000e+00      -7.180691e-02       7.180725e-02 
       1.800000e+00      -7.180690e-02      -7.180679e-02 
       1.800000e+00       7.180717e-02      -7.180679e-02 
       1.800000e+00       7.180717e-02       7.180728e-02 
       1.800000e+00      -7.180690e-02       7.180728e-02 
       1.800000e+00      -7.180690e-02      -7.180679e-02 
       1.800000e+00       7.180717e-02      -7.180679e-02 
       1.800000e+00       7.180717e-02       7.180728e-02 
       1.800000e+00      -7.180690e-02       7.180728e-02 
       1.900000e+00      -7.180688e-02      -7.180676e-02 
       1.900000e+00       7.180718e-02      -7.180676e-02 
       1.900000e+00       7.180718e-02       7.180730e-02 
       1.900000e+00      -7.180688e-02       7.180730e-02 
       1.900000e+00      -7.180688e-02      -7.180676e-02 
       1.900000e+00       7.180718e-02      -7.180676e-02 
       1.900000e+00       7.180718e-02       7.180730e-02 
       1.900000e+00      -7.180688e-02       7.180730e-02 
       2.000000e+00      -7.180687e-02      -7.180673e-02 
       2.000000e+00       7.180720e-02      -7.180674e-02 
       2.000000e+00       7.180720e-02       7.180733e-02 
       2.000000e+00      -7.180687e-02       7.180733e-02 
       2.000000e+00      -7.180687e-02      -7.180673e-02 
       2.000000e+00       7.180720e-02      -7.180674e-02 
       2.000000e+00       7.180720e-02       7.180733e-02 
       2.000000e+00      -7.180687e-02       7.180733e-02 
       2.100000e+00      -7.180685e-02      -7.180671e-02 
[...]
POINT_DATA       800 
VECTORS Displacements float
       2.32387544e-25       0.00000000e+00       0.00000000e+00 
       1.14174141e-25       0.00000000e+00       0.00000000e+00 
      -2.32387544e-25       0.00000000e+00       0.00000000e+00 
      -1.14174141e-25       0.00000000e+00       0.00000000e+00 
       1.88342301e-09       4.08832121e-10       9.07074860e-10 
       5.35718706e-10       4.08832121e-10       7.83313053e-10 
      -1.88416656e-09       5.32593913e-10       7.83313053e-10 
      -5.36462264e-10       5.32593913e-10       9.07074860e-10 
       1.88342301e-09       4.08832121e-10       9.07074860e-10 
       5.35718706e-10       4.08832121e-10       7.83313053e-10 
      -1.88416656e-09       5.32593913e-10       7.83313053e-10 
      -5.36462264e-10       5.32593913e-10       9.07074860e-10 
       3.73064954e-09       1.74706945e-09       3.48295338e-09 
       1.06113648e-09       1.74706941e-09       3.23542976e-09 
      -3.73213702e-09       1.99459292e-09       3.23542969e-09 
      -1.06262396e-09       1.99459296e-09       3.48295331e-09 
       3.73064954e-09       1.74706945e-09       3.48295338e-09 
       1.06113648e-09       1.74706941e-09       3.23542976e-09 
      -3.73213702e-09       1.99459292e-09       3.23542969e-09 
      -1.06262396e-09       1.99459296e-09       3.48295331e-09 
       5.54167962e-09       3.99668056e-09       7.69525921e-09 
       1.57625335e-09       3.99668049e-09       7.32397375e-09 
      -5.54391144e-09       4.36796577e-09       7.32397359e-09 
      -1.57848512e-09       4.36796584e-09       7.69525904e-09 
       5.54167962e-09       3.99668056e-09       7.69525921e-09 
       1.57625335e-09       3.99668049e-09       7.32397375e-09 
      -5.54391144e-09       4.36796577e-09       7.32397359e-09 
      -1.57848512e-09       4.36796584e-09       7.69525904e-09 
       7.31651328e-09       7.13963416e-09       1.35116160e-08 
       2.08106937e-09       7.13963406e-09       1.30165686e-08 
      -7.31948957e-09       7.63468105e-09       1.30165684e-08 
      -2.08404566e-09       7.63468115e-09       1.35116157e-08 
       7.31651328e-09       7.13963416e-09       1.35116160e-08 
       2.08106937e-09       7.13963406e-09       1.30165686e-08 
      -7.31948957e-09       7.63468105e-09       1.30165684e-08 
      -2.08404566e-09       7.63468115e-09       1.35116157e-08 
       9.05515052e-09       1.11578989e-08       2.08996472e-08 
       2.57558452e-09       1.11578988e-08       2.02808381e-08 
      -9.05887171e-09       1.17767074e-08       2.02808376e-08 
      -2.57930566e-09       1.17767076e-08       2.08996468e-08 
       9.05515052e-09       1.11578989e-08       2.08996472e-08 
       2.57558452e-09       1.11578988e-08       2.02808381e-08 
      -9.05887171e-09       1.17767074e-08       2.02808376e-08 
      -2.57930566e-09       1.17767076e-08       2.08996468e-08 
       1.07575912e-08       1.60334435e-08       2.98269767e-08 
       3.05979864e-09       1.60334433e-08       2.90844056e-08 
      -1.07620578e-08       1.67760136e-08       2.90844050e-08 
      -3.06426529e-09       1.67760138e-08       2.98269761e-08 
       1.07575912e-08       1.60334435e-08       2.98269767e-08 
       3.05979864e-09       1.60334433e-08       2.90844056e-08 
      -1.07620578e-08       1.67760136e-08       2.90844050e-08 
      -3.06426529e-09       1.67760138e-08       2.98269761e-08 
       1.24238355e-08       2.17482364e-08       4.02612280e-08 
       3.53371188e-09       2.17482362e-08       3.93948950e-08 
      -1.24290476e-08       2.26145682e-08       3.93948942e-08 
      -3.53892404e-09       2.26145685e-08       4.02612272e-08 
       1.24238355e-08       2.17482364e-08       4.02612280e-08 
       3.53371188e-09       2.17482362e-08       3.93948950e-08 
      -1.24290476e-08       2.26145682e-08       3.93948942e-08 
      -3.53892404e-09       2.26145685e-08       4.02612272e-08 
       1.40538834e-08       2.82842465e-08       5.21700247e-08 
       3.99732447e-09       2.82842462e-08       5.11799298e-08 
      -1.40598413e-08       2.92743398e-08       5.11799287e-08 
      -4.00328215e-09       2.92743402e-08       5.21700236e-08 
       1.40538834e-08       2.82842465e-08       5.21700247e-08 
       3.99732447e-09       2.82842462e-08       5.11799298e-08 
      -1.40598413e-08       2.92743398e-08       5.11799287e-08 
      -4.00328215e-09       2.92743402e-08       5.21700236e-08 
       1.56477349e-08       3.56234423e-08       6.55209905e-08 
       4.45063597e-09       3.56234419e-08       6.44071336e-08 
      -1.56544387e-08       3.67372972e-08       6.44071323e-08 
      -4.45733983e-09       3.67372976e-08       6.55209891e-08 
       1.56477349e-08       3.56234423e-08       6.55209905e-08 
       4.45063597e-09       3.56234419e-08       6.44071336e-08 
      -1.56544387e-08       3.67372972e-08       6.44071323e-08 
      -4.45733983e-09       3.67372976e-08       6.55209891e-08 
       1.72053900e-08       4.37477926e-08       8.02817490e-08 
       4.89364660e-09       4.37477920e-08       7.90441302e-08 
      -1.72128403e-08       4.49854089e-08       7.90441285e-08 
      -4.90109708e-09       4.49854095e-08       8.02817473e-08 
       1.72053898e-08       4.37477925e-08       8.02817490e-08 
       4.89364660e-09       4.37477920e-08       7.90441302e-08 
      -1.72128403e-08       4.49854090e-08       7.90441285e-08 
      -4.90109708e-09       4.49854095e-08       8.02817473e-08 
       1.87288867e-08       5.26460961e-08       9.64139779e-08 
       5.32703170e-09       5.26460954e-08       9.50656249e-08 
      -1.87368174e-08       5.39944462e-08       9.50656229e-08 
      -5.33496247e-09       5.39944468e-08       9.64139759e-08 
       1.87288867e-08       5.26460961e-08       9.64139779e-08 
       5.32703170e-09       5.26460954e-08       9.50656249e-08 
      -1.87368174e-08       5.39944462e-08       9.50656229e-08 
      -5.33496247e-09       5.39944468e-08       9.64139759e-08 
       2.02199972e-08       6.22953893e-08       1.13894655e-07 
       5.75120018e-09       6.22953886e-08       1.12435568e-07 
      -2.02284085e-08       6.37544731e-08       1.12435565e-07 
      -5.75961168e-09       6.37544739e-08       1.13894652e-07 
       2.02199972e-08       6.22953893e-08       1.13894655e-07 
       5.75120018e-09       6.22953886e-08       1.12435568e-07 
      -2.02284085e-08       6.37544731e-08       1.12435565e-07 
      -5.75961168e-09       6.37544739e-08       1.13894652e-07 
       2.16787210e-08       7.26795391e-08       1.32694811e-07 
       6.16615181e-09       7.26795382e-08       1.31124990e-07 
      -2.16876141e-08       7.42493565e-08       1.31124987e-07 
      -6.17504492e-09       7.42493573e-08       1.32694809e-07 
       2.16787210e-08       7.26795391e-08       1.32694811e-07 
       6.16615181e-09       7.26795382e-08       1.31124990e-07 
      -2.16876141e-08       7.42493565e-08       1.31124987e-07 
      -6.17504492e-09       7.42493573e-08       1.32694809e-07 
       2.31050585e-08       8.37824119e-08       1.52785479e-07 
       6.57188659e-09       8.37824110e-08       1.51104924e-07 
      -2.31144339e-08       8.54629630e-08       1.51104921e-07 
      -6.58126198e-09       8.54629640e-08       1.52785476e-07 
       2.31050585e-08       8.37824119e-08       1.52785479e-07 
       6.57188659e-09       8.37824110e-08       1.51104924e-07 
      -2.31144339e-08       8.54629630e-08       1.51104921e-07 
      -6.58126198e-09       8.54629640e-08       1.52785476e-07 
       2.44990090e-08       9.55878746e-08       1.74137690e-07 
       6.96840452e-09       9.55878735e-08       1.72346400e-07 
      -2.45088678e-08       9.73791593e-08       1.72346397e-07 
      -6.97826308e-09       9.73791604e-08       1.74137687e-07 
       2.44990090e-08       9.55878746e-08       1.74137690e-07 
       6.96840452e-09       9.55878735e-08       1.72346400e-07 
      -2.45088678e-08       9.73791593e-08       1.72346397e-07 
      -6.97826308e-09       9.73791604e-08       1.74137687e-07 
       2.58605735e-08       1.08079794e-07       1.96722476e-07 
       7.35570538e-09       1.08079793e-07       1.94820452e-07 
      -2.58709161e-08       1.09981812e-07       1.94820448e-07 
      -7.36604822e-09       1.09981813e-07       1.96722472e-07 
       2.58605735e-08       1.08079794e-07       1.96722476e-07 
       7.35570538e-09       1.08079793e-07       1.94820452e-07 
      -2.58709161e-08       1.09981812e-07       1.94820448e-07 
      -7.36604822e-09       1.09981813e-07       1.96722472e-07 
       2.71897516e-08       1.21242036e-07       2.20510867e-07 
       7.73378983e-09       1.21242035e-07       2.18498109e-07 
      -2.72005785e-08       1.23254788e-07       2.18498105e-07 
      -7.74461673e-09       1.23254789e-07       2.20510863e-07 
       2.71897516e-08       1.21242036e-07       2.20510867e-07 
       7.73378983e-09       1.21242035e-07       2.18498109e-07 
      -2.72005785e-08       1.23254788e-07       2.18498105e-07 
      -7.74461673e-09       1.23254789e-07       2.20510863e-07 
       2.84865427e-08       1.35058468e-07       2.45473897e-07 
       8.10265743e-09       1.35058467e-07       2.43350405e-07 
      -2.84978550e-08       1.37181954e-07       2.43350400e-07 
      -8.11396972e-09       1.37181956e-07       2.45473893e-07 
       2.84865427e-08       1.35058468e-07       2.45473897e-07 
       8.10265743e-09       1.35058467e-07       2.43350405e-07 
      -2.84978550e-08       1.37181954e-07       2.43350400e-07 
      -8.11396972e-09       1.37181956e-07       2.45473893e-07 
       2.97509477e-08       1.49512957e-07       2.71582597e-07 
       8.46230841e-09       1.49512956e-07       2.69348370e-07 
      -2.97627456e-08       1.51747177e-07       2.69348365e-07 
      -8.47410608e-09       1.51747178e-07       2.71582592e-07 
       2.97509477e-08       1.49512957e-07       2.71582597e-07 
       8.46230841e-09       1.49512956e-07       2.69348370e-07 
      -2.97627456e-08       1.51747177e-07       2.69348365e-07 
      -8.47410608e-09       1.51747178e-07       2.71582592e-07 
       3.09829660e-08       1.64589369e-07       2.98807998e-07 
       8.81274254e-09       1.64589368e-07       2.96463037e-07 
      -3.09952504e-08       1.66934322e-07       2.96463031e-07 
      -8.82502671e-09       1.66934324e-07       2.98807992e-07 
       3.09829660e-08       1.64589369e-07       2.98807998e-07 
       8.81274209e-09       1.64589368e-07       2.96463037e-07 
      -3.09952504e-08       1.66934322e-07       2.96463031e-07 
      -8.82502671e-09       1.66934324e-07       2.98807992e-07 
       3.21845968e-08       1.80278402e-07       3.27115186e-07 
       9.15459530e-09       1.80278400e-07       3.24672518e-07 
      -3.21971809e-08       1.82721060e-07       3.24672512e-07 
      -9.16717946e-09       1.82721062e-07       3.27115180e-07 
       3.21845968e-08       1.80278402e-07       3.27115186e-07 
       9.15459530e-09       1.80278400e-07       3.24672518e-07 
      -3.21971809e-08       1.82721060e-07       3.24672512e-07 
      -9.16717946e-09       1.82721062e-07       3.27115180e-07 
       3.33576509e-08       1.96558989e-07       3.56484546e-07 
       9.48831591e-09       1.96558987e-07       3.53944172e-07 
      -3.33705357e-08       1.99099353e-07       3.53944166e-07 
      -9.50120072e-09       1.99099355e-07       3.56484540e-07 
       3.33576509e-08       1.96558989e-07       3.56484546e-07 
       9.48831591e-09       1.96558987e-07       3.53944172e-07 
      -3.33705357e-08       1.99099353e-07       3.53944166e-07 
      -9.50120072e-09       1.99099355e-07       3.56484540e-07 
       3.45021292e-08       2.13416895e-07       3.86890519e-07 
       9.81390391e-09       2.13416893e-07       3.84252439e-07 
      -3.45153146e-08       2.16054966e-07       3.84252432e-07 
      -9.82708936e-09       2.16054968e-07       3.86890512e-07 
       3.45021292e-08       2.13416895e-07       3.86890519e-07 
       9.81390391e-09       2.13416893e-07       3.84252439e-07 
      -3.45153146e-08       2.16054966e-07       3.84252432e-07 
      -9.82708936e-09       2.16054968e-07       3.86890512e-07 
       3.56180303e-08       2.30837886e-07       4.18307544e-07 
       1.01313593e-08       2.30837883e-07       4.15571757e-07 
      -3.56315186e-08       2.33573662e-07       4.15571750e-07 
      -1.01448472e-08       2.33573664e-07       4.18307537e-07 
       3.56180303e-08       2.30837886e-07       4.18307544e-07 
       1.01313593e-08       2.30837883e-07       4.15571757e-07 
      -3.56315186e-08       2.33573662e-07       4.15571750e-07 
      -1.01448472e-08       2.33573664e-07       4.18307537e-07 
       3.67053552e-08       2.48807725e-07       4.50710061e-07 
       1.04406821e-08       2.48807723e-07       4.47876568e-07 
      -3.67191464e-08       2.51641207e-07       4.47876560e-07 
      -1.04544733e-08       2.51641210e-07       4.50710053e-07 
       3.67053552e-08       2.48807725e-07       4.50710061e-07 
       1.04406821e-08       2.48807723e-07       4.47876568e-07 
      -3.67191464e-08       2.51641207e-07       4.47876560e-07 
      -1.04544733e-08       2.51641210e-07       4.50710053e-07 
       3.77641034e-08       2.67312178e-07       4.84072509e-07 
       1.07418718e-08       2.67312176e-07       4.81141310e-07 
      -3.77781988e-08       2.70243366e-07       4.81141301e-07 
      -1.07559672e-08       2.70243369e-07       4.84072501e-07 
       3.77641034e-08       2.67312178e-07       4.84072509e-07 
       1.07418718e-08       2.67312176e-07       4.81141310e-07 
      -3.77781988e-08       2.70243366e-07       4.81141301e-07 
      -1.07559672e-08       2.70243369e-07       4.84072501e-07 
       3.87942753e-08       2.86337009e-07       5.18369329e-07 
       1.10349294e-08       2.86337007e-07       5.15340423e-07 
      -3.88086758e-08       2.89365904e-07       5.15340414e-07 
      -1.10493299e-08       2.89365906e-07       5.18369320e-07 
       3.87942753e-08       2.86337009e-07       5.18369329e-07 
       1.10349294e-08       2.86337007e-07       5.15340423e-07 
      -3.88086758e-08       2.89365904e-07       5.15340414e-07 
      -1.10493299e-08       2.89365906e-07       5.18369320e-07 
       3.97958715e-08       3.05867984e-07       5.53574959e-07 
       1.13198548e-08       3.05867981e-07       5.50448346e-07 
      -3.98105766e-08       3.08994584e-07       5.50448337e-07 
      -1.13345600e-08       3.08994587e-07       5.53574950e-07 
       3.97958715e-08       3.05867984e-07       5.53574959e-07 
       1.13198548e-08       3.05867981e-07       5.50448346e-07 
      -3.98105766e-08       3.08994584e-07       5.50448337e-07 
      -1.13345600e-08       3.08994587e-07       5.53574950e-07 
       4.07688905e-08       3.25890866e-07       5.89663840e-07 
       1.15966472e-08       3.25890863e-07       5.86439521e-07 
      -4.07839025e-08       3.29115172e-07       5.86439511e-07 
      -1.16116587e-08       3.29115175e-07       5.89663831e-07 
       4.07688905e-08       3.25890866e-07       5.89663840e-07 
       1.15966472e-08       3.25890863e-07       5.86439521e-07 
      -4.07839025e-08       3.29115172e-07       5.86439511e-07 
      -1.16116587e-08       3.29115175e-07       5.89663831e-07 
       4.17133332e-08       3.46391421e-07       6.26610412e-07 
       1.18653070e-08       3.46391418e-07       6.23288386e-07 
      -4.17286525e-08       3.49713432e-07       6.23288376e-07 
      -1.18806258e-08       3.49713436e-07       6.26610402e-07 
       4.17133337e-08       3.46391421e-07       6.26610412e-07 
       1.18653074e-08       3.46391418e-07       6.23288386e-07 
      -4.17286521e-08       3.49713432e-07       6.23288376e-07 
      -1.18806258e-08       3.49713436e-07       6.26610402e-07 
       4.26311679e-08       3.67362243e-07       6.64383167e-07 
       1.21264399e-08       3.67362240e-07       6.60976462e-07 
      -4.26466689e-08       3.70768933e-07       6.60976452e-07 
      -1.21419403e-08       3.70768936e-07       6.64383157e-07 
       4.26311679e-08       3.67362243e-07       6.64383167e-07 
       1.21264399e-08       3.67362240e-07       6.60976462e-07 
      -4.26466689e-08       3.70768933e-07       6.60976452e-07 
      -1.21419403e-08       3.70768936e-07       6.64383157e-07 
       4.35242362e-08       3.88784165e-07       7.02965900e-07 
       1.23805237e-08       3.88784161e-07       6.99474516e-07 
      -4.35399197e-08       3.92275533e-07       6.99474505e-07 
      -1.23962072e-08       3.92275537e-07       7.02965889e-07 
       4.35242362e-08       3.88784165e-07       7.02965900e-07 
       1.23805237e-08       3.88784161e-07       6.99474516e-07 
      -4.35399197e-08       3.92275533e-07       6.99474505e-07 
      -1.23962072e-08       3.92275537e-07       7.02965889e-07 
       4.43925385e-08       4.10644850e-07       7.42336459e-07 
       1.26275599e-08       4.10644846e-07       7.38760396e-07 
      -4.44084050e-08       4.14220896e-07       7.38760385e-07 
      -1.26434263e-08       4.14220900e-07       7.42336448e-07 
       4.43925385e-08       4.10644850e-07       7.42336459e-07 
       1.26275599e-08       4.10644846e-07       7.38760396e-07 
      -4.44084050e-08       4.14220896e-07       7.38760385e-07 
      -1.26434263e-08       4.14220900e-07       7.42336448e-07 
       4.52360740e-08       4.32931960e-07       7.82472691e-07 
       1.28675475e-08       4.32931956e-07       7.78811949e-07 
      -4.52521252e-08       4.36592685e-07       7.78811937e-07 
      -1.28835986e-08       4.36592689e-07       7.82472679e-07 
       4.52360740e-08       4.32931960e-07       7.82472691e-07 
       1.28675475e-08       4.32931956e-07       7.78811949e-07 
      -4.52521252e-08       4.36592685e-07       7.78811937e-07 
      -1.28835986e-08       4.36592689e-07       7.82472679e-07 
       4.60548431e-08       4.55633159e-07       8.23352444e-07 
       1.31004865e-08       4.55633155e-07       8.19607023e-07 
      -4.60710794e-08       4.59378562e-07       8.19607011e-07 
      -1.31167233e-08       4.59378566e-07       8.23352431e-07 
       4.60548431e-08       4.55633159e-07       8.23352444e-07 
       1.31004865e-08       4.55633155e-07       8.19607023e-07 
      -4.60710794e-08       4.59378562e-07       8.19607011e-07 
      -1.31167233e-08       4.59378566e-07       8.23352431e-07 
       4.68488457e-08       4.78736108e-07       8.64953565e-07 
       1.33263773e-08       4.78736104e-07       8.61123465e-07 
      -4.68652686e-08       4.82566190e-07       8.61123453e-07 
      -1.33428002e-08       4.82566194e-07       8.64953552e-07 
       4.68488457e-08       4.78736108e-07       8.64953565e-07 
       1.33263773e-08       4.78736104e-07       8.61123465e-07 
      -4.68652686e-08       4.82566190e-07       8.61123453e-07 
      -1.33428002e-08       4.82566194e-07       8.64953552e-07 
       4.76180824e-08       5.02228472e-07       9.07253903e-07 
       1.35452201e-08       5.02228468e-07       9.03339124e-07 
      -4.76346922e-08       5.06143232e-07       9.03339111e-07 
      -1.35618299e-08       5.06143236e-07       9.07253890e-07 
       4.76180824e-08       5.02228472e-07       9.07253903e-07 
       1.35452201e-08       5.02228468e-07       9.03339124e-07 
      -4.76346922e-08       5.06143232e-07       9.03339111e-07 
      -1.35618299e-08       5.06143236e-07       9.07253890e-07 
       4.83625531e-08       5.26097912e-07       9.50231305e-07 
       1.37570151e-08       5.26097908e-07       9.46231848e-07 
      -4.83793499e-08       5.30097350e-07       9.46231834e-07 
      -1.37738119e-08       5.30097354e-07       9.50231291e-07 
       4.83625531e-08       5.26097912e-07       9.50231305e-07 
       1.37570151e-08       5.26097908e-07       9.46231848e-07 