# vtk DataFile Version 2.0
./output/onsasExample_nonLinearCantileverBlade_staitc3D_pitch numElements=10/onsasExample_nonLinearCantileverBlade_staitc3D_pitch numElements=10_0026.vtk
ASCII
DATASET UNSTRUCTURED_GRID

POINTS 800 float
      -6.762558e-25      -7.180703e-02      -7.180703e-02 
       8.307046e-25       7.180703e-02      -7.180703e-02 
       6.762558e-25       7.180703e-02       7.180703e-02 
      -8.307046e-25      -7.180703e-02       7.180703e-02 
       1.000000e-01      -7.180703e-02      -7.180703e-02 
       1.000000e-01       7.180703e-02      -7.180703e-02 
       1.000000e-01       7.180703e-02       7.180703e-02 
       1.000000e-01      -7.180703e-02       7.180703e-02 
       1.000000e-01      -7.180703e-02      -7.180703e-02 
       1.000000e-01       7.180703e-02      -7.180703e-02 
       1.000000e-01       7.180703e-02       7.180703e-02 
       1.000000e-01      -7.180703e-02       7.180703e-02 
       2.000000e-01      -7.180703e-02      -7.180703e-02 
       2.000000e-01       7.180704e-02      -7.180703e-02 
       2.000000e-01       7.180704e-02       7.180703e-02 
       2.000000e-01      -7.180703e-02       7.180703e-02 
       2.000000e-01      -7.180703e-02      -7.180703e-02 
       2.000000e-01       7.180704e-02      -7.180703e-02 
       2.000000e-01       7.180704e-02       7.180703e-02 
       2.000000e-01      -7.180703e-02       7.180703e-02 
       3.000000e-01      -7.180703e-02      -7.180703e-02 
       3.000000e-01       7.180704e-02      -7.180703e-02 
       3.000000e-01       7.180704e-02       7.180704e-02 
       3.000000e-01      -7.180703e-02       7.180704e-02 
       3.000000e-01      -7.180703e-02      -7.180703e-02 
       3.000000e-01       7.180704e-02      -7.180703e-02 
       3.000000e-01       7.180704e-02       7.180704e-02 
       3.000000e-01      -7.180703e-02       7.180704e-02 
       4.000000e-01      -7.180702e-02      -7.180703e-02 
       4.000000e-01       7.180704e-02      -7.180703e-02 
       4.000000e-01       7.180704e-02       7.180704e-02 
       4.000000e-01      -7.180702e-02       7.180704e-02 
       4.000000e-01      -7.180702e-02      -7.180703e-02 
       4.000000e-01       7.180704e-02      -7.180703e-02 
       4.000000e-01       7.180704e-02       7.180704e-02 
       4.000000e-01      -7.180702e-02       7.180704e-02 
       5.000000e-01      -7.180702e-02      -7.180702e-02 
       5.000000e-01       7.180705e-02      -7.180702e-02 
       5.000000e-01       7.180705e-02       7.180704e-02 
       5.000000e-01      -7.180702e-02       7.180704e-02 
       5.000000e-01      -7.180702e-02      -7.180702e-02 
       5.000000e-01       7.180705e-02      -7.180702e-02 
       5.000000e-01       7.180705e-02       7.180704e-02 
       5.000000e-01      -7.180702e-02       7.180704e-02 
       6.000000e-01      -7.180701e-02      -7.180702e-02 
       6.000000e-01       7.180705e-02      -7.180702e-02 
       6.000000e-01       7.180705e-02       7.180705e-02 
       6.000000e-01      -7.180701e-02       7.180705e-02 
       6.000000e-01      -7.180701e-02      -7.180702e-02 
       6.000000e-01       7.180705e-02      -7.180702e-02 
       6.000000e-01       7.180705e-02       7.180705e-02 
       6.000000e-01      -7.180701e-02       7.180705e-02 
       7.000000e-01      -7.180701e-02      -7.180701e-02 
       7.000000e-01       7.180706e-02      -7.180701e-02 
       7.000000e-01       7.180706e-02       7.180705e-02 
       7.000000e-01      -7.180701e-02       7.180705e-02 
       7.000000e-01      -7.180701e-02      -7.180701e-02 
       7.000000e-01       7.180706e-02      -7.180701e-02 
       7.000000e-01       7.180706e-02       7.180705e-02 
       7.000000e-01      -7.180701e-02       7.180705e-02 
       8.000000e-01      -7.180700e-02      -7.180701e-02 
       8.000000e-01       7.180707e-02      -7.180701e-02 
       8.000000e-01       7.180707e-02       7.180706e-02 
       8.000000e-01      -7.180700e-02       7.180706e-02 
       8.000000e-01      -7.180700e-02      -7.180701e-02 
       8.000000e-01       7.180707e-02      -7.180701e-02 
       8.000000e-01       7.180707e-02       7.180706e-02 
       8.000000e-01      -7.180700e-02       7.180706e-02 
       9.000000e-01      -7.180699e-02      -7.180700e-02 
       9.000000e-01       7.180707e-02      -7.180700e-02 
       9.000000e-01       7.180707e-02       7.180707e-02 
       9.000000e-01      -7.180699e-02       7.180707e-02 
       9.000000e-01      -7.180699e-02      -7.180700e-02 
       9.000000e-01       7.180707e-02      -7.180700e-02 
       9.000000e-01       7.180707e-02       7.180707e-02 
       9.000000e-01      -7.180699e-02       7.180707e-02 
       1.000000e+00      -7.180698e-02      -7.180699e-02 
       1.000000e+00       7.180708e-02      -7.180699e-02 
       1.000000e+00       7.180708e-02       7.180707e-02 
       1.000000e+00      -7.180698e-02       7.180707e-02 
       1.000000e+00      -7.180698e-02      -7.180699e-02 
       1.000000e+00       7.180708e-02      -7.180699e-02 
       1.000000e+00       7.180708e-02       7.180707e-02 
       1.000000e+00      -7.180698e-02       7.180707e-02 
       1.100000e+00      -7.180697e-02      -7.180698e-02 
       1.100000e+00       7.180709e-02      -7.180698e-02 
       1.100000e+00       7.180709e-02       7.180708e-02 
       1.100000e+00      -7.180697e-02       7.180708e-02 
       1.100000e+00      -7.180697e-02      -7.180698e-02 
       1.100000e+00       7.180709e-02      -7.180698e-02 
       1.100000e+00       7.180709e-02       7.180708e-02 
       1.100000e+00      -7.180697e-02       7.180708e-02 
       1.200000e+00      -7.180696e-02      -7.180697e-02 
       1.200000e+00       7.180710e-02      -7.180698e-02 
       1.200000e+00       7.180711e-02       7.180709e-02 
       1.200000e+00      -7.180696e-02       7.180709e-02 
       1.200000e+00      -7.180696e-02      -7.180697e-02 
       1.200000e+00       7.180710e-02      -7.180698e-02 
       1.200000e+00       7.180711e-02       7.180709e-02 
       1.200000e+00      -7.180696e-02       7.180709e-02 
       1.300000e+00      -7.180695e-02      -7.180696e-02 
       1.300000e+00       7.180712e-02      -7.180697e-02 
       1.300000e+00       7.180712e-02       7.180710e-02 
       1.300000e+00      -7.180695e-02       7.180710e-02 
       1.300000e+00      -7.180695e-02      -7.180696e-02 
       1.300000e+00       7.180712e-02      -7.180697e-02 
       1.300000e+00       7.180712e-02       7.180710e-02 
       1.300000e+00      -7.180695e-02       7.180710e-02 
       1.400000e+00      -7.180694e-02      -7.180695e-02 
       1.400000e+00       7.180713e-02      -7.180696e-02 
       1.400000e+00       7.180713e-02       7.180711e-02 
       1.400000e+00      -7.180694e-02       7.180711e-02 
       1.400000e+00      -7.180694e-02      -7.180695e-02 
       1.400000e+00       7.180713e-02      -7.180696e-02 
       1.400000e+00       7.180713e-02       7.180711e-02 
       1.400000e+00      -7.180694e-02       7.180711e-02 
       1.500000e+00      -7.180692e-02      -7.180694e-02 
       1.500000e+00       7.180714e-02      -7.180695e-02 
       1.500000e+00       7.180714e-02       7.180712e-02 
       1.500000e+00      -7.180692e-02       7.180712e-02 
       1.500000e+00      -7.180692e-02      -7.180694e-02 
       1.500000e+00       7.180714e-02      -7.180695e-02 
       1.500000e+00       7.180714e-02       7.180712e-02 
       1.500000e+00      -7.180692e-02       7.180712e-02 
       1.600000e+00      -7.180691e-02      -7.180693e-02 
       1.600000e+00       7.180716e-02      -7.180693e-02 
       1.600000e+00       7.180716e-02       7.180713e-02 
       1.600000e+00      -7.180691e-02       7.180713e-02 
       1.600000e+00      -7.180691e-02      -7.180693e-02 
       1.600000e+00       7.180716e-02      -7.180693e-02 
       1.600000e+00       7.180716e-02       7.180713e-02 
       1.600000e+00      -7.180691e-02       7.180713e-02 
       1.700000e+00      -7.180689e-02      -7.180692e-02 
       1.700000e+00       7.180717e-02      -7.180692e-02 
       1.700000e+00       7.180717e-02       7.180714e-02 
       1.700000e+00      -7.180689e-02       7.180715e-02 
       1.700000e+00      -7.180689e-02      -7.180692e-02 
       1.700000e+00       7.180717e-02      -7.180692e-02 
       1.700000e+00       7.180717e-02       7.180714e-02 
       1.700000e+00      -7.180689e-02       7.180715e-02 
       1.800000e+00      -7.180688e-02      -7.180691e-02 
       1.800000e+00       7.180719e-02      -7.180691e-02 
       1.800000e+00       7.180719e-02       7.180716e-02 
       1.800000e+00      -7.180688e-02       7.180716e-02 
       1.800000e+00      -7.180688e-02      -7.180691e-02 
       1.800000e+00       7.180719e-02      -7.180691e-02 
       1.800000e+00       7.180719e-02       7.180716e-02 
       1.800000e+00      -7.180688e-02       7.180716e-02 
       1.900000e+00      -7.180686e-02      -7.180689e-02 
       1.900000e+00       7.180720e-02      -7.180690e-02 
       1.900000e+00       7.180721e-02       7.180717e-02 
       1.900000e+00      -7.180686e-02       7.180717e-02 
       1.900000e+00      -7.180686e-02      -7.180689e-02 
       1.900000e+00       7.180720e-02      -7.180690e-02 
       1.900000e+00       7.180721e-02       7.180717e-02 
       1.900000e+00      -7.180686e-02       7.180717e-02 
       2.000000e+00      -7.180685e-02      -7.180688e-02 
       2.000000e+00       7.180722e-02      -7.180688e-02 
       2.000000e+00       7.180722e-02       7.180718e-02 
       2.000000e+00      -7.180684e-02       7.180719e-02 
       2.000000e+00      -7.180685e-02      -7.180688e-02 
       2.000000e+00       7.180722e-02      -7.180688e-02 
       2.000000e+00       7.180722e-02       7.180718e-02 
       2.000000e+00      -7.180684e-02       7.180719e-02 
       2.100000e+00      -7.180683e-02      -7.180686e-02 
[...]
POINT_DATA       800 
VECTORS Displacements float
      -6.76255756e-25       2.77555756e-17       0.00000000e+00 
       8.30704565e-25      -1.38777878e-17       1.38777878e-17 
       6.76255756e-25      -2.77555756e-17       0.00000000e+00 
      -8.30704565e-25       1.38777878e-17      -1.38777878e-17 
       1.38766777e-09       4.65176647e-10       5.04461167e-10 
      -1.48623086e-10       4.65176633e-10       3.61653041e-10 
      -1.38851425e-09       6.07984746e-10       3.61653041e-10 
       1.47776597e-10       6.07984774e-10       5.04461167e-10 
       1.38766777e-09       4.65176647e-10       5.04461167e-10 
      -1.48623086e-10       4.65176633e-10       3.61653041e-10 
      -1.38851425e-09       6.07984746e-10       3.61653041e-10 
       1.47776597e-10       6.07984774e-10       5.04461167e-10 
       2.74866391e-09       1.98981170e-09       1.86397732e-09 
      -2.94398672e-10       1.98981165e-09       1.57836107e-09 
      -2.75035705e-09       2.27542787e-09       1.57836104e-09 
       2.92705526e-10       2.27542792e-09       1.86397729e-09 
       2.74866391e-09       1.98981170e-09       1.86397732e-09 
      -2.94398672e-10       1.98981165e-09       1.57836107e-09 
      -2.75035705e-09       2.27542787e-09       1.57836104e-09 
       2.92705526e-10       2.27542792e-09       1.86397729e-09 
       4.08298839e-09       4.55335068e-09       4.06195955e-09 
      -4.37326730e-10       4.55335059e-09       3.63353514e-09 
      -4.08552842e-09       4.98177488e-09       3.63353508e-09 
       4.34786707e-10       4.98177498e-09       4.06195950e-09 
       4.08298839e-09       4.55335068e-09       4.06195955e-09 
      -4.37326730e-10       4.55335059e-09       3.63353514e-09 
      -4.08552842e-09       4.98177488e-09       3.63353508e-09 
       4.34786707e-10       4.98177498e-09       4.06195950e-09 
       5.39064127e-09       8.13523907e-09       7.08181899e-09 
      -5.77407289e-10       8.13523893e-09       6.51058643e-09 
      -5.39402828e-09       8.70647131e-09       6.51058635e-09 
       5.74020276e-10       8.70647145e-09       7.08181891e-09 
       5.39064127e-09       8.13523907e-09       7.08181899e-09 
      -5.77407289e-10       8.13523893e-09       6.51058643e-09 
      -5.39402828e-09       8.70647131e-09       6.51058635e-09 
       5.74020276e-10       8.70647145e-09       7.08181891e-09 
       6.67162248e-09       1.27149224e-08       1.09069668e-08 
      -7.14640236e-10       1.27149221e-08       1.01929261e-08 
      -6.67585665e-09       1.34289626e-08       1.01929259e-08 
       7.10406178e-10       1.34289628e-08       1.09069667e-08 
       6.67162248e-09       1.27149224e-08       1.09069668e-08 
      -7.14640236e-10       1.27149221e-08       1.01929261e-08 
      -6.67585665e-09       1.34289626e-08       1.01929259e-08 
       7.10406178e-10       1.34289628e-08       1.09069667e-08 
       7.92593213e-09       1.82718461e-08       1.55208141e-08 
      -8.49025739e-10       1.82718457e-08       1.46639652e-08 
      -7.93101362e-09       1.91286943e-08       1.46639650e-08 
       8.43944137e-10       1.91286946e-08       1.55208139e-08 
       7.92593213e-09       1.82718461e-08       1.55208141e-08 
      -8.49025739e-10       1.82718457e-08       1.46639652e-08 
      -7.93101362e-09       1.91286943e-08       1.46639650e-08 
       8.43944137e-10       1.91286946e-08       1.55208139e-08 
       9.15357001e-09       2.47854557e-08       2.09067720e-08 
      -9.80563741e-10       2.47854553e-08       1.99071149e-08 
      -9.15949894e-09       2.57851118e-08       1.99071147e-08 
       9.74634817e-10       2.57851122e-08       2.09067718e-08 
       9.15357001e-09       2.47854557e-08       2.09067720e-08 
      -9.80563741e-10       2.47854553e-08       1.99071149e-08 
      -9.15949894e-09       2.57851118e-08       1.99071147e-08 
       9.74634817e-10       2.57851122e-08       2.09067718e-08 
       1.03545365e-08       3.22351967e-08       2.70482517e-08 
      -1.10925413e-09       3.22351962e-08       2.59057864e-08 
      -1.03613130e-08       3.33776607e-08       2.59057861e-08 
       1.10247755e-09       3.33776612e-08       2.70482514e-08 
       1.03545365e-08       3.22351967e-08       2.70482517e-08 
      -1.10925413e-09       3.22351962e-08       2.59057864e-08 
      -1.03613130e-08       3.33776607e-08       2.59057861e-08 
       1.10247755e-09       3.33776612e-08       2.70482514e-08 
       1.15288311e-08       4.06005145e-08       3.39286642e-08 
      -1.23509691e-09       4.06005139e-08       3.26433907e-08 
      -1.15364553e-08       4.18857866e-08       3.26433903e-08 
       1.22747268e-09       4.18857872e-08       3.39286639e-08 
       1.15288311e-08       4.06005145e-08       3.39286642e-08 
      -1.23509691e-09       4.06005139e-08       3.26433907e-08 
      -1.15364553e-08       4.18857866e-08       3.26433903e-08 
       1.22747268e-09       4.18857872e-08       3.39286639e-08 
       1.26764543e-08       4.98608548e-08       4.15314208e-08 
      -1.35809231e-09       4.98608541e-08       4.01033391e-08 
      -1.26849263e-08       5.12889347e-08       4.01033386e-08 
       1.34962019e-09       5.12889354e-08       4.15314203e-08 
       1.26764541e-08       4.98608548e-08       4.15314208e-08 
      -1.35809242e-09       4.98608541e-08       4.01033390e-08 
      -1.26849264e-08       5.12889347e-08       4.01033386e-08 
       1.34961997e-09       5.12889354e-08       4.15314203e-08 
       1.37989611e-08       6.00035399e-08       4.98327072e-08 
      -1.47823842e-09       6.00035390e-08       4.82768498e-08 
      -1.38079781e-08       6.15593951e-08       4.82768493e-08 
       1.46922141e-09       6.15593959e-08       4.98327067e-08 
       1.37989611e-08       6.00035399e-08       4.98327072e-08 
      -1.47823842e-09       6.00035390e-08       4.82768498e-08 
      -1.38079781e-08       6.15593951e-08       4.82768493e-08 
       1.46922141e-09       6.15593959e-08       4.98327067e-08 
       1.48976040e-08       7.10023019e-08       5.88249062e-08 
      -1.59583635e-09       7.10023010e-08       5.71412731e-08 
      -1.49071655e-08       7.26859325e-08       5.71412725e-08 
       1.58627489e-09       7.26859334e-08       5.88249056e-08 
       1.48976040e-08       7.10023019e-08       5.88249062e-08 
      -1.59583635e-09       7.10023010e-08       5.71412731e-08 
      -1.49071655e-08       7.26859325e-08       5.71412725e-08 
       1.58627489e-09       7.26859334e-08       5.88249056e-08 
       1.59723827e-08       8.28387502e-08       6.84931749e-08 
      -1.71088699e-09       8.28387491e-08       6.66817663e-08 
      -1.59824893e-08       8.46501560e-08       6.66817656e-08 
       1.70078018e-09       8.46501571e-08       6.84931742e-08 
       1.59723827e-08       8.28387502e-08       6.84931749e-08 
      -1.71088699e-09       8.28387491e-08       6.66817663e-08 
      -1.59824893e-08       8.46501560e-08       6.66817656e-08 
       1.70078018e-09       8.46501571e-08       6.84931742e-08 
       1.70232970e-08       9.54944937e-08       7.88226708e-08 
      -1.82338988e-09       9.54944924e-08       7.68834865e-08 
      -1.70339494e-08       9.74336748e-08       7.68834857e-08 
       1.81273752e-09       9.74336760e-08       7.88226700e-08 
       1.70232970e-08       9.54944937e-08       7.88226708e-08 
      -1.82338988e-09       9.54944924e-08       7.68834865e-08 
      -1.70339494e-08       9.74336748e-08       7.68834857e-08 
       1.81273752e-09       9.74336760e-08       7.88226700e-08 
       1.80503474e-08       1.08951142e-07       8.97985512e-08 
      -1.93334504e-09       1.08951140e-07       8.77315912e-08 
      -1.80615456e-08       1.11018098e-07       8.77315903e-08 
       1.92214689e-09       1.11018099e-07       8.97985503e-08 
       1.80503474e-08       1.08951142e-07       8.97985512e-08 
      -1.93334504e-09       1.08951140e-07       8.77315912e-08 
      -1.80615456e-08       1.11018098e-07       8.77315903e-08 
       1.92214689e-09       1.11018099e-07       8.97985503e-08 
       1.90535330e-08       1.23190303e-07       1.01405973e-07 
      -2.04075268e-09       1.23190301e-07       9.92112377e-08 
      -1.90652778e-08       1.25385035e-07       9.92112367e-08 
       2.02900807e-09       1.25385036e-07       1.01405972e-07 
       1.90535330e-08       1.23190303e-07       1.01405973e-07 
      -2.04075268e-09       1.23190301e-07       9.92112377e-08 
      -1.90652778e-08       1.25385035e-07       9.92112367e-08 
       2.02900807e-09       1.25385036e-07       1.01405972e-07 
       2.00328552e-08       1.38193587e-07       1.13630095e-07 
      -2.14561235e-09       1.38193585e-07       1.11307583e-07 
      -2.00451462e-08       1.40516094e-07       1.11307582e-07 
       2.13332130e-09       1.40516096e-07       1.13630094e-07 
       2.00328552e-08       1.38193587e-07       1.13630095e-07 
      -2.14561235e-09       1.38193585e-07       1.11307583e-07 
      -2.00451462e-08       1.40516094e-07       1.11307582e-07 
       2.13332130e-09       1.40516096e-07       1.13630094e-07 
       2.09883126e-08       1.53942603e-07       1.26456072e-07 
      -2.24792474e-09       1.53942601e-07       1.24005785e-07 
      -2.10011510e-08       1.56392885e-07       1.24005784e-07 
       2.23508612e-09       1.56392887e-07       1.26456071e-07 
       2.09883126e-08       1.53942603e-07       1.26456072e-07 
      -2.24792474e-09       1.53942601e-07       1.24005785e-07 
      -2.10011510e-08       1.56392885e-07       1.24005784e-07 
       2.23508612e-09       1.56392887e-07       1.26456071e-07 
       2.19199061e-08       1.70418960e-07       1.39869064e-07 
      -2.34768915e-09       1.70418958e-07       1.37291001e-07 
      -2.19332916e-08       1.72997017e-07       1.37291000e-07 
       2.33430342e-09       1.72997019e-07       1.39869062e-07 
       2.19199061e-08       1.70418960e-07       1.39869064e-07 
      -2.34768915e-09       1.70418958e-07       1.37291001e-07 
      -2.19332916e-08       1.72997017e-07       1.37291000e-07 
       2.33430342e-09       1.72997019e-07       1.39869062e-07 
       2.28276353e-08       1.87604267e-07       1.53854226e-07 
      -2.44490606e-09       1.87604264e-07       1.51148388e-07 
      -2.28415686e-08       1.90310099e-07       1.51148387e-07 
       2.43097276e-09       1.90310101e-07       1.53854225e-07 
       2.28276353e-08       1.87604267e-07       1.53854226e-07 
      -2.44490583e-09       1.87604264e-07       1.51148388e-07 
      -2.28415686e-08       1.90310099e-07       1.51148387e-07 
       2.43097276e-09       1.90310101e-07       1.53854225e-07 
       2.37130107e-08       2.05488010e-07       1.68389492e-07 
      -2.53961829e-09       2.05488007e-07       1.65570911e-07 
      -2.37272788e-08       2.08306585e-07       1.65570909e-07 
       2.52535015e-09       2.08306587e-07       1.68389490e-07 
       2.37130107e-08       2.05488010e-07       1.68389492e-07 
      -2.53961829e-09       2.05488007e-07       1.65570911e-07 
      -2.37272788e-08       2.08306585e-07       1.65570909e-07 
       2.52535015e-09       2.08306587e-07       1.68389490e-07 
       2.45773295e-08       2.24046084e-07       1.83468990e-07 
      -2.63208255e-09       2.24046082e-07       1.80537665e-07 
      -2.45919325e-08       2.26977402e-07       1.80537663e-07 
       2.61747957e-09       2.26977405e-07       1.83468988e-07 
       2.45773295e-08       2.24046084e-07       1.83468990e-07 
      -2.63208255e-09       2.24046082e-07       1.80537665e-07 
      -2.45919325e-08       2.26977402e-07       1.80537663e-07 
       2.61747957e-09       2.26977405e-07       1.83468988e-07 
       2.54205923e-08       2.43262264e-07       1.99079623e-07 
      -2.72229883e-09       2.43262261e-07       1.96035555e-07 
      -2.54355297e-08       2.46306324e-07       1.96035553e-07 
       2.70736100e-09       2.46306327e-07       1.99079621e-07 
       2.54205923e-08       2.43262264e-07       1.99079623e-07 
      -2.72229883e-09       2.43262261e-07       1.96035555e-07 
      -2.54355297e-08       2.46306324e-07       1.96035553e-07 
       2.70736100e-09       2.46306327e-07       1.99079621e-07 
       2.62427973e-08       2.63120321e-07       2.15208295e-07 
      -2.81026713e-09       2.63120318e-07       2.12051484e-07 
      -2.62580713e-08       2.66277124e-07       2.12051482e-07 
       2.79499357e-09       2.66277127e-07       2.15208293e-07 
       2.62427973e-08       2.63120321e-07       2.15208295e-07 
      -2.81026713e-09       2.63120318e-07       2.12051484e-07 
      -2.62580713e-08       2.66277124e-07       2.12051482e-07 
       2.79499357e-09       2.66277127e-07       2.15208293e-07 
       2.70439457e-08       2.83604028e-07       2.31841909e-07 
      -2.89598834e-09       2.83604025e-07       2.28572355e-07 
      -2.70595564e-08       2.86873574e-07       2.28572353e-07 
       2.88037771e-09       2.86873577e-07       2.31841907e-07 
       2.70439457e-08       2.83604028e-07       2.31841909e-07 
      -2.89598834e-09       2.83604025e-07       2.28572355e-07 
      -2.70595564e-08       2.86873574e-07       2.28572353e-07 
       2.88037771e-09       2.86873577e-07       2.31841907e-07 
       2.78240377e-08       3.04697158e-07       2.48967370e-07 
      -2.97946112e-09       3.04697155e-07       2.45585073e-07 
      -2.78399850e-08       3.08079447e-07       2.45585071e-07 
       2.96351388e-09       3.08079450e-07       2.48967368e-07 
       2.78240377e-08       3.04697158e-07       2.48967370e-07 
      -2.97946112e-09       3.04697155e-07       2.45585073e-07 
      -2.78399850e-08       3.08079447e-07       2.45585071e-07 
       2.96351388e-09       3.08079450e-07       2.48967368e-07 
       2.85830728e-08       3.26383484e-07       2.66571580e-07 
      -3.06068593e-09       3.26383481e-07       2.63076540e-07 
      -2.85993575e-08       3.29878516e-07       2.63076537e-07 
       3.04440162e-09       3.29878519e-07       2.66571578e-07 
       2.85830728e-08       3.26383484e-07       2.66571580e-07 
      -3.06068593e-09       3.26383481e-07       2.63076540e-07 
      -2.85993575e-08       3.29878516e-07       2.63076537e-07 
       3.04440162e-09       3.29878519e-07       2.66571578e-07 
       2.93210523e-08       3.48646779e-07       2.84641443e-07 
      -3.13966275e-09       3.48646775e-07       2.81033660e-07 
      -2.93376732e-08       3.52254553e-07       2.81033657e-07 
       3.12304138e-09       3.52254556e-07       2.84641441e-07 
       2.93210523e-08       3.48646779e-07       2.84641443e-07 
      -3.13966275e-09       3.48646775e-07       2.81033660e-07 
      -2.93376732e-08       3.52254553e-07       2.81033657e-07 
       3.12304138e-09       3.52254556e-07       2.84641441e-07 
       3.00379739e-08       3.71470814e-07       3.03163863e-07 
      -3.21639204e-09       3.71470810e-07       2.99443336e-07 
      -3.00549332e-08       3.75191331e-07       2.99443334e-07 
       3.19943227e-09       3.75191335e-07       3.03163860e-07 
       3.00379739e-08       3.71470814e-07       3.03163863e-07 
      -3.21639204e-09       3.71470810e-07       2.99443336e-07 
      -3.00549332e-08       3.75191331e-07       2.99443334e-07 
       3.19943227e-09       3.75191335e-07       3.03163860e-07 
       3.07338390e-08       3.94839364e-07       3.22125743e-07 
      -3.29087335e-09       3.94839360e-07       3.18292473e-07 
      -3.07511367e-08       3.98672623e-07       3.18292470e-07 
       3.27357519e-09       3.98672628e-07       3.22125740e-07 
       3.07338390e-08       3.94839364e-07       3.22125743e-07 
      -3.29087291e-09       3.94839360e-07       3.18292473e-07 
      -3.07511363e-08       3.98672623e-07       3.18292470e-07 
       3.27357563e-09       3.98672628e-07       3.22125740e-07 
       3.14101229e-08       4.18744077e-07       3.41506761e-07 
      -3.36318440e-09       4.18744073e-07       3.37575780e-07 
      -3.14276161e-08       4.22675047e-07       3.37575777e-07 
       3.34569172e-09       4.22675051e-07       3.41506758e-07 
       3.14101229e-08       4.18744077e-07       3.41506761e-07 
      -3.36318440e-09       4.18744073e-07       3.37575780e-07 
      -3.14276161e-08       4.22675047e-07       3.37575777e-07 
       3.34569172e-09       4.22675051e-07       3.41506758e-07 
       3.20681579e-08       4.43163014e-07       3.61302792e-07 
      -3.43354811e-09       4.43163009e-07       3.57274101e-07 
      -3.20858464e-08       4.47191694e-07       3.57274098e-07 
       3.41585915e-09       4.47191698e-07       3.61302789e-07 
       3.20681579e-08       4.43163014e-07       3.61302792e-07 
      -3.43354811e-09       4.43163009e-07       3.57274101e-07 
      -3.20858464e-08       4.47191694e-07       3.57274098e-07 
       3.41585915e-09       4.47191698e-07       3.61302789e-07 
       3.27079435e-08       4.68082110e-07       3.81502487e-07 
      -3.50196272e-09       4.68082105e-07       3.77376085e-07 
      -3.27258278e-08       4.72208500e-07       3.77376082e-07 
       3.48407836e-09       4.72208505e-07       3.81502484e-07 
       3.27079435e-08       4.68082110e-07       3.81502487e-07 
      -3.50196272e-09       4.68082105e-07       3.77376085e-07 
      -3.27258278e-08       4.72208500e-07       3.77376082e-07 
       3.48407836e-09       4.72208505e-07       3.81502484e-07 
       3.33294801e-08       4.93487302e-07       4.02094494e-07 
      -3.56843000e-09       4.93487297e-07       3.97870381e-07 
      -3.33475612e-08       4.97711402e-07       3.97870378e-07 
       3.55034846e-09       4.97711407e-07       4.02094491e-07 
       3.33294801e-08       4.93487302e-07       4.02094494e-07 
      -3.56843000e-09       4.93487297e-07       3.97870381e-07 
      -3.33475612e-08       4.97711402e-07       3.97870378e-07 
       3.55034846e-09       4.97711407e-07       4.02094491e-07 
       3.39327673e-08       5.19364526e-07       4.23067464e-07 
      -3.63294905e-09       5.19364521e-07       4.18745640e-07 
      -3.39510455e-08       5.23686337e-07       4.18745637e-07 
       3.61467034e-09       5.23686342e-07       4.23067460e-07 
       3.39327673e-08       5.19364526e-07       4.23067464e-07 
      -3.63294905e-09       5.19364521e-07       4.18745640e-07 
      -3.39510455e-08       5.23686337e-07       4.18745637e-07 
       3.61467034e-09       5.23686342e-07       4.23067460e-07 
       3.45178051e-08       5.45699720e-07       4.44410045e-07 
      -3.69551989e-09       5.45699714e-07       4.39990511e-07 
      -3.45362814e-08       5.50119240e-07       4.39990508e-07 
       3.67704356e-09       5.50119246e-07       4.44410042e-07 
       3.45178051e-08       5.45699720e-07       4.44410045e-07 
      -3.69551989e-09       5.45699714e-07       4.39990511e-07 
      -3.45362814e-08       5.50119240e-07       4.39990508e-07 
       3.67704356e-09       5.50119246e-07       4.44410042e-07 
       3.50845939e-08       5.72478818e-07       4.66110889e-07 
      -3.75614251e-09       5.72478813e-07       4.61593644e-07 
      -3.51032683e-08       5.76996049e-07       4.61593641e-07 
       3.73746811e-09       5.76996054e-07       4.66110886e-07 
       3.50845939e-08       5.72478818e-07       4.66110889e-07 
      -3.75614251e-09       5.72478813e-07       4.61593644e-07 
      -3.51032683e-08       5.76996049e-07       4.61593641e-07 
       3.73746811e-09       5.76996054e-07       4.66110886e-07 
       3.56331338e-08       5.99687758e-07       4.88158644e-07 
      -3.81481691e-09       5.99687752e-07       4.83543689e-07 
      -3.56520058e-08       6.04302699e-07       4.83543685e-07 
       3.79594489e-09       6.04302705e-07       4.88158641e-07 
       3.56331338e-08       5.99687758e-07       4.88158644e-07 
      -3.81481691e-09       5.99687752e-07       4.83543689e-07 