# vtk DataFile Version 2.0
./output/onsasExample_nonLinearCantileverBlade_staitc3D_pitch numElements=10/onsasExample_nonLinearCantileverBlade_staitc3D_pitch numElements=10_0003.vtk
ASCII
DATASET UNSTRUCTURED_GRID

POINTS 800 float
       7.474579e-26      -7.180703e-02      -7.180703e-02 
       3.858937e-26       7.180703e-02      -7.180703e-02 
      -7.474579e-26       7.180703e-02       7.180703e-02 
      -3.858937e-26      -7.180703e-02       7.180703e-02 
       1.000000e-01      -7.180703e-02      -7.180703e-02 
       1.000000e-01       7.180703e-02      -7.180703e-02 
       1.000000e-01       7.180703e-02       7.180703e-02 
       1.000000e-01      -7.180703e-02       7.180703e-02 
       1.000000e-01      -7.180703e-02      -7.180703e-02 
       1.000000e-01       7.180703e-02      -7.180703e-02 
       1.000000e-01       7.180703e-02       7.180703e-02 
       1.000000e-01      -7.180703e-02       7.180703e-02 
       2.000000e-01      -7.180703e-02      -7.180703e-02 
       2.000000e-01       7.180703e-02      -7.180703e-02 
       2.000000e-01       7.180703e-02       7.180703e-02 
       2.000000e-01      -7.180703e-02       7.180703e-02 
       2.000000e-01      -7.180703e-02      -7.180703e-02 
       2.000000e-01       7.180703e-02      -7.180703e-02 
       2.000000e-01       7.180703e-02       7.180703e-02 
       2.000000e-01      -7.180703e-02       7.180703e-02 
       3.000000e-01      -7.180703e-02      -7.180703e-02 
       3.000000e-01       7.180703e-02      -7.180703e-02 
       3.000000e-01       7.180703e-02       7.180703e-02 
       3.000000e-01      -7.180703e-02       7.180703e-02 
       3.000000e-01      -7.180703e-02      -7.180703e-02 
       3.000000e-01       7.180703e-02      -7.180703e-02 
       3.000000e-01       7.180703e-02       7.180703e-02 
       3.000000e-01      -7.180703e-02       7.180703e-02 
       4.000000e-01      -7.180703e-02      -7.180703e-02 
       4.000000e-01       7.180703e-02      -7.180703e-02 
       4.000000e-01       7.180703e-02       7.180703e-02 
       4.000000e-01      -7.180703e-02       7.180703e-02 
       4.000000e-01      -7.180703e-02      -7.180703e-02 
       4.000000e-01       7.180703e-02      -7.180703e-02 
       4.000000e-01       7.180703e-02       7.180703e-02 
       4.000000e-01      -7.180703e-02       7.180703e-02 
       5.000000e-01      -7.180703e-02      -7.180703e-02 
       5.000000e-01       7.180703e-02      -7.180703e-02 
       5.000000e-01       7.180703e-02       7.180703e-02 
       5.000000e-01      -7.180703e-02       7.180703e-02 
       5.000000e-01      -7.180703e-02      -7.180703e-02 
       5.000000e-01       7.180703e-02      -7.180703e-02 
       5.000000e-01       7.180703e-02       7.180703e-02 
       5.000000e-01      -7.180703e-02       7.180703e-02 
       6.000000e-01      -7.180703e-02      -7.180703e-02 
       6.000000e-01       7.180703e-02      -7.180703e-02 
       6.000000e-01       7.180703e-02       7.180703e-02 
       6.000000e-01      -7.180703e-02       7.180703e-02 
       6.000000e-01      -7.180703e-02      -7.180703e-02 
       6.000000e-01       7.180703e-02      -7.180703e-02 
       6.000000e-01       7.180703e-02       7.180703e-02 
       6.000000e-01      -7.180703e-02       7.180703e-02 
       7.000000e-01      -7.180703e-02      -7.180703e-02 
       7.000000e-01       7.180703e-02      -7.180703e-02 
       7.000000e-01       7.180703e-02       7.180704e-02 
       7.000000e-01      -7.180703e-02       7.180704e-02 
       7.000000e-01      -7.180703e-02      -7.180703e-02 
       7.000000e-01       7.180703e-02      -7.180703e-02 
       7.000000e-01       7.180703e-02       7.180704e-02 
       7.000000e-01      -7.180703e-02       7.180704e-02 
       8.000000e-01      -7.180703e-02      -7.180703e-02 
       8.000000e-01       7.180703e-02      -7.180703e-02 
       8.000000e-01       7.180703e-02       7.180704e-02 
       8.000000e-01      -7.180703e-02       7.180704e-02 
       8.000000e-01      -7.180703e-02      -7.180703e-02 
       8.000000e-01       7.180703e-02      -7.180703e-02 
       8.000000e-01       7.180703e-02       7.180704e-02 
       8.000000e-01      -7.180703e-02       7.180704e-02 
       9.000000e-01      -7.180703e-02      -7.180703e-02 
       9.000000e-01       7.180703e-02      -7.180703e-02 
       9.000000e-01       7.180703e-02       7.180704e-02 
       9.000000e-01      -7.180703e-02       7.180704e-02 
       9.000000e-01      -7.180703e-02      -7.180703e-02 
       9.000000e-01       7.180703e-02      -7.180703e-02 
       9.000000e-01       7.180703e-02       7.180704e-02 
       9.000000e-01      -7.180703e-02       7.180704e-02 
       1.000000e+00      -7.180703e-02      -7.180703e-02 
       1.000000e+00       7.180703e-02      -7.180703e-02 
       1.000000e+00       7.180703e-02       7.180704e-02 
       1.000000e+00      -7.180703e-02       7.180704e-02 
       1.000000e+00      -7.180703e-02      -7.180703e-02 
       1.000000e+00       7.180703e-02      -7.180703e-02 
       1.000000e+00       7.180703e-02       7.180704e-02 
       1.000000e+00      -7.180703e-02       7.180704e-02 
       1.100000e+00      -7.180703e-02      -7.180703e-02 
       1.100000e+00       7.180703e-02      -7.180703e-02 
       1.100000e+00       7.180703e-02       7.180704e-02 
       1.100000e+00      -7.180703e-02       7.180704e-02 
       1.100000e+00      -7.180703e-02      -7.180703e-02 
       1.100000e+00       7.180703e-02      -7.180703e-02 
       1.100000e+00       7.180703e-02       7.180704e-02 
       1.100000e+00      -7.180703e-02       7.180704e-02 
       1.200000e+00      -7.180703e-02      -7.180703e-02 
       1.200000e+00       7.180703e-02      -7.180703e-02 
       1.200000e+00       7.180703e-02       7.180704e-02 
       1.200000e+00      -7.180703e-02       7.180704e-02 
       1.200000e+00      -7.180703e-02      -7.180703e-02 
       1.200000e+00       7.180703e-02      -7.180703e-02 
       1.200000e+00       7.180703e-02       7.180704e-02 
       1.200000e+00      -7.180703e-02       7.180704e-02 
       1.300000e+00      -7.180703e-02      -7.180702e-02 
       1.300000e+00       7.180703e-02      -7.180702e-02 
       1.300000e+00       7.180703e-02       7.180704e-02 
       1.300000e+00      -7.180703e-02       7.180704e-02 
       1.300000e+00      -7.180703e-02      -7.180702e-02 
       1.300000e+00       7.180703e-02      -7.180702e-02 
       1.300000e+00       7.180703e-02       7.180704e-02 
       1.300000e+00      -7.180703e-02       7.180704e-02 
       1.400000e+00      -7.180703e-02      -7.180702e-02 
       1.400000e+00       7.180703e-02      -7.180702e-02 
       1.400000e+00       7.180703e-02       7.180704e-02 
       1.400000e+00      -7.180703e-02       7.180704e-02 
       1.400000e+00      -7.180703e-02      -7.180702e-02 
       1.400000e+00       7.180703e-02      -7.180702e-02 
       1.400000e+00       7.180703e-02       7.180704e-02 
       1.400000e+00      -7.180703e-02       7.180704e-02 
       1.500000e+00      -7.180703e-02      -7.180702e-02 
       1.500000e+00       7.180703e-02      -7.180702e-02 
       1.500000e+00       7.180703e-02       7.180704e-02 
       1.500000e+00      -7.180703e-02       7.180704e-02 
       1.500000e+00      -7.180703e-02      -7.180702e-02 
       1.500000e+00       7.180703e-02      -7.180702e-02 
       1.500000e+00       7.180703e-02       7.180704e-02 
       1.500000e+00      -7.180703e-02       7.180704e-02 
       1.600000e+00      -7.180703e-02      -7.180702e-02 
       1.600000e+00       7.180703e-02      -7.180702e-02 
       1.600000e+00       7.180703e-02       7.180705e-02 
       1.600000e+00      -7.180703e-02       7.180705e-02 
       1.600000e+00      -7.180703e-02      -7.180702e-02 
       1.600000e+00       7.180703e-02      -7.180702e-02 
       1.600000e+00       7.180703e-02       7.180705e-02 
       1.600000e+00      -7.180703e-02       7.180705e-02 
       1.700000e+00      -7.180703e-02      -7.180702e-02 
       1.700000e+00       7.180703e-02      -7.180702e-02 
       1.700000e+00       7.180703e-02       7.180705e-02 
       1.700000e+00      -7.180703e-02       7.180705e-02 
       1.700000e+00      -7.180703e-02      -7.180702e-02 
       1.700000e+00       7.180703e-02      -7.180702e-02 
       1.700000e+00       7.180703e-02       7.180705e-02 
       1.700000e+00      -7.180703e-02       7.180705e-02 
       1.800000e+00      -7.180703e-02      -7.180702e-02 
       1.800000e+00       7.180703e-02      -7.180702e-02 
       1.800000e+00       7.180703e-02       7.180705e-02 
       1.800000e+00      -7.180703e-02       7.180705e-02 
       1.800000e+00      -7.180703e-02      -7.180702e-02 
       1.800000e+00       7.180703e-02      -7.180702e-02 
       1.800000e+00       7.180703e-02       7.180705e-02 
       1.800000e+00      -7.180703e-02       7.180705e-02 
       1.900000e+00      -7.180703e-02      -7.180702e-02 
       1.900000e+00       7.180703e-02      -7.180702e-02 
       1.900000e+00       7.180703e-02       7.180705e-02 
       1.900000e+00      -7.180703e-02       7.180705e-02 
       1.900000e+00      -7.180703e-02      -7.180702e-02 
       1.900000e+00       7.180703e-02      -7.180702e-02 
       1.900000e+00       7.180703e-02       7.180705e-02 
       1.900000e+00      -7.180703e-02       7.180705e-02 
       2.000000e+00      -7.180703e-02      -7.180701e-02 
       2.000000e+00       7.180703e-02      -7.180701e-02 
       2.000000e+00       7.180703e-02       7.180705e-02 
       2.000000e+00      -7.180703e-02       7.180705e-02 
       2.000000e+00      -7.180703e-02      -7.180701e-02 
       2.000000e+00       7.180703e-02      -7.180701e-02 
       2.000000e+00       7.180703e-02       7.180705e-02 
       2.000000e+00      -7.180703e-02       7.180705e-02 
       2.100000e+00      -7.180703e-02      -7.180701e-02 
[...]
POINT_DATA       800 
VECTORS Displacements float
       7.47457931e-26       0.00000000e+00       0.00000000e+00 
       3.85893729e-26       0.00000000e+00       0.00000000e+00 
      -7.47457931e-26       0.00000000e+00       0.00000000e+00 
      -3.85893729e-26       0.00000000e+00       0.00000000e+00 
       7.85669446e-11       2.15813478e-13       5.46665491e-11 
       7.77819059e-11       2.15813478e-13       5.45497814e-11 
      -7.85674303e-11       3.32581185e-13       5.45497814e-11 
      -7.77823916e-11       3.32581185e-13       5.46665491e-11 
       7.85669446e-11       2.15813478e-13       5.46665491e-11 
       7.77819059e-11       2.15813478e-13       5.45497814e-11 
      -7.85674303e-11       3.32581185e-13       5.45497814e-11 
      -7.77823916e-11       3.32581185e-13       5.46665491e-11 
       1.55624236e-10       9.72985581e-13       2.17154891e-10 
       1.54069257e-10       9.72985581e-13       2.16921356e-10 
      -1.55625235e-10       1.20652099e-12       2.16921356e-10 
      -1.54070257e-10       1.20652099e-12       2.17154891e-10 
       1.55624236e-10       9.72985581e-13       2.17154891e-10 
       1.54069257e-10       9.72985581e-13       2.16921356e-10 
      -1.55625235e-10       1.20652099e-12       2.16921356e-10 
      -1.54070257e-10       1.20652099e-12       2.17154891e-10 
       2.31171915e-10       2.26103858e-12       4.85373158e-10 
       2.28862096e-10       2.26103858e-12       4.85022827e-10 
      -2.31173358e-10       2.61136945e-12       4.85022827e-10 
      -2.28863539e-10       2.61136945e-12       4.85373158e-10 
       2.31171915e-10       2.26103858e-12       4.85373158e-10 
       2.28862096e-10       2.26103858e-12       4.85022827e-10 
      -2.31173358e-10       2.61136945e-12       4.85022827e-10 
      -2.28863539e-10       2.61136945e-12       4.85373158e-10 
       3.05209913e-10       4.06945311e-12       8.57229523e-10 
       3.02160297e-10       4.06945311e-12       8.56762425e-10 
      -3.05211911e-10       4.53655169e-12       8.56762439e-10 
      -3.02162295e-10       4.53655169e-12       8.57229523e-10 
       3.05209913e-10       4.06945311e-12       8.57229523e-10 
       3.02160297e-10       4.06945311e-12       8.56762425e-10 
      -3.05211911e-10       4.53655169e-12       8.56762439e-10 
      -3.02162295e-10       4.53655169e-12       8.57229523e-10 
       3.77738396e-10       6.38775144e-12       1.33063212e-09 
       3.73963971e-10       6.38775144e-12       1.33004827e-09 
      -3.77740783e-10       6.97161773e-12       1.33004827e-09 
      -3.73966469e-10       6.97161773e-12       1.33063212e-09 
       3.77738396e-10       6.38775144e-12       1.33063212e-09 
       3.73963971e-10       6.38775144e-12       1.33004827e-09 
      -3.77740783e-10       6.97161773e-12       1.33004827e-09 
      -3.73966469e-10       6.97161773e-12       1.33063212e-09 
       4.48757143e-10       9.20538645e-12       1.90348912e-09 
       4.44273174e-10       9.20538645e-12       1.90278848e-09 
      -4.48760029e-10       9.90602045e-12       1.90278848e-09 
      -4.44276060e-10       9.90602045e-12       1.90348910e-09 
       4.48757143e-10       9.20538645e-12       1.90348912e-09 
       4.44273174e-10       9.20538645e-12       1.90278848e-09 
      -4.48760029e-10       9.90602045e-12       1.90278848e-09 
      -4.44276060e-10       9.90602045e-12       1.90348910e-09 
       5.18266319e-10       1.25119082e-11       2.57370866e-09 
       5.13087794e-10       1.25119082e-11       2.57289126e-09 
      -5.18269649e-10       1.33293099e-11       2.57289126e-09 
      -5.13091125e-10       1.33293099e-11       2.57370866e-09 
       5.18266319e-10       1.25119082e-11       2.57370866e-09 
       5.13087794e-10       1.25119082e-11       2.57289126e-09 
      -5.18269649e-10       1.33293099e-11       2.57289126e-09 
      -5.13091125e-10       1.33293099e-11       2.57370866e-09 
       5.86265703e-10       1.62967556e-11       3.33919893e-09 
       5.80407833e-10       1.62967556e-11       3.33826473e-09 
      -5.86269699e-10       1.72309528e-11       3.33826473e-09 
      -5.80411830e-10       1.72309528e-11       3.33919893e-09 
       5.86265703e-10       1.62967556e-11       3.33919893e-09 
       5.80407833e-10       1.62967556e-11       3.33826473e-09 
      -5.86269699e-10       1.72309528e-11       3.33826473e-09 
      -5.80411830e-10       1.72309528e-11       3.33919893e-09 
       6.52755627e-10       2.05494927e-11       4.19786804e-09 
       6.46233289e-10       2.05494927e-11       4.19681707e-09 
      -6.52760068e-10       2.16004575e-11       4.19681707e-09 
      -6.46237730e-10       2.16004575e-11       4.19786804e-09 
       6.52755627e-10       2.05494927e-11       4.19786804e-09 
       6.46233289e-10       2.05494927e-11       4.19681707e-09 
      -6.52760068e-10       2.16004575e-11       4.19681707e-09 
      -6.46237730e-10       2.16004575e-11       4.19786804e-09 
       7.17735871e-10       2.52595583e-11       5.14762417e-09 
       7.10564274e-10       2.52595583e-11       5.14645644e-09 
      -7.17740756e-10       2.64272909e-11       5.14645644e-09 
      -7.10569159e-10       2.64272909e-11       5.14762417e-09 
       7.17735871e-10       2.52595583e-11       5.14762416e-09 
       7.10564274e-10       2.52595861e-11       5.14645644e-09 
      -7.17740756e-10       2.64272909e-11       5.14645646e-09 
      -7.10569159e-10       2.64272632e-11       5.14762417e-09 
       7.81285925e-10       3.04227893e-11       6.18640603e-09 
       7.73479281e-10       3.04228309e-11       6.18513381e-09 
      -7.81291254e-10       3.16950355e-11       6.18513381e-09 
      -7.73484832e-10       3.16949939e-11       6.18640603e-09 
       7.81285925e-10       3.04227893e-11       6.18640603e-09 
       7.73479281e-10       3.04228309e-11       6.18513381e-09 
      -7.81291254e-10       3.16950355e-11       6.18513381e-09 
      -7.73484832e-10       3.16949939e-11       6.18640603e-09 
       8.43485504e-10       3.60235036e-11       7.31231141e-09 
       8.35057357e-10       3.60235314e-11       7.31093472e-09 
      -8.43490833e-10       3.74002079e-11       7.31093472e-09 
      -8.35062908e-10       3.74001802e-11       7.31231141e-09 
       8.43485504e-10       3.60235036e-11       7.31231141e-09 
       8.35057357e-10       3.60235314e-11       7.31093472e-09 
      -8.43490833e-10       3.74002079e-11       7.31093472e-09 
      -8.35062908e-10       3.74001802e-11       7.31231141e-09 
       9.04334163e-10       4.20522644e-11       8.52346864e-09 
       8.95298058e-10       4.20522922e-11       8.52198748e-09 
      -9.04339936e-10       4.35334407e-11       8.52198749e-09 
      -8.95303831e-10       4.35334130e-11       8.52346864e-09 
       9.04334163e-10       4.20522644e-11       8.52346864e-09 
       8.95298058e-10       4.20522922e-11       8.52198748e-09 
      -9.04339936e-10       4.35334407e-11       8.52198749e-09 
      -8.95303831e-10       4.35334130e-11       8.52346864e-09 
       9.63832125e-10       4.84996487e-11       9.81800613e-09 
       9.54201607e-10       4.84996904e-11       9.81642047e-09 
      -9.63838120e-10       5.00853387e-11       9.81642047e-09 
      -9.54207602e-10       5.00852970e-11       9.81800613e-09 
       9.63832125e-10       4.84996487e-11       9.81800613e-09 
       9.54201607e-10       4.84996904e-11       9.81642047e-09 
      -9.63838120e-10       5.00853387e-11       9.81642047e-09 
      -9.54207602e-10       5.00852970e-11       9.81800613e-09 
       1.02197917e-09       5.53563168e-11       1.11940522e-08 
       1.01176778e-09       5.53563445e-11       1.11923620e-08 
      -1.02198583e-09       5.70464648e-11       1.11923620e-08 
      -1.01177422e-09       5.70464370e-11       1.11940522e-08 
       1.02197917e-09       5.53563168e-11       1.11940522e-08 
       1.01176778e-09       5.53563445e-11       1.11923620e-08 
      -1.02198583e-09       5.70464648e-11       1.11923620e-08 
      -1.01177422e-09       5.70464370e-11       1.11940522e-08 
       1.07877574e-09       6.26128316e-11       1.26497351e-08 
       1.06799658e-09       6.26128732e-11       1.26479405e-08 
      -1.07878284e-09       6.44074655e-11       1.26479405e-08 
      -1.06800369e-09       6.44074238e-11       1.26497351e-08 
       1.07877574e-09       6.26128316e-11       1.26497351e-08 
       1.06799658e-09       6.26128732e-11       1.26479405e-08 
      -1.07878284e-09       6.44074655e-11       1.26479405e-08 
      -1.06800369e-09       6.44074238e-11       1.26497351e-08 
       1.13422138e-09       7.02598119e-11       1.41831833e-08 
       1.12288867e-09       7.02598396e-11       1.41812842e-08 
      -1.13422849e-09       7.21589316e-11       1.41812842e-08 
      -1.12289578e-09       7.21589039e-11       1.41831833e-08 
       1.13422138e-09       7.02598119e-11       1.41831833e-08 
       1.12288867e-09       7.02598396e-11       1.41812842e-08 
      -1.13422849e-09       7.21589316e-11       1.41812842e-08 
      -1.12289578e-09       7.21589039e-11       1.41831833e-08 
       1.18831656e-09       7.82878623e-11       1.57925251e-08 
       1.17644317e-09       7.82878901e-11       1.57905216e-08 
      -1.18832411e-09       8.02914540e-11       1.57905216e-08 
      -1.17645071e-09       8.02914263e-11       1.57925251e-08 
       1.18831656e-09       7.82878623e-11       1.57925251e-08 
       1.17644317e-09       7.82878901e-11       1.57905216e-08 
      -1.18832411e-09       8.02914540e-11       1.57905216e-08 
      -1.17645071e-09       8.02914263e-11       1.57925251e-08 
       1.24106103e-09       8.66875738e-11       1.74758889e-08 
       1.22866051e-09       8.66876154e-11       1.74737809e-08 
      -1.24106858e-09       8.87956514e-11       1.74737809e-08 
      -1.22866806e-09       8.87956098e-11       1.74758889e-08 
       1.24106103e-09       8.66875738e-11       1.74758889e-08 
       1.22866051e-09       8.66876154e-11       1.74737809e-08 
      -1.24106858e-09       8.87956514e-11       1.74737809e-08 
      -1.22866806e-09       8.87956098e-11       1.74758889e-08 
       1.29245459e-09       9.54495510e-11       1.92314030e-08 
       1.27954003e-09       9.54495788e-11       1.92291905e-08 
      -1.29246258e-09       9.76621145e-11       1.92291905e-08 
      -1.27954869e-09       9.76620868e-11       1.92314030e-08 
       1.29245459e-09       9.54495649e-11       1.92314030e-08 
       1.27954047e-09       9.54495649e-11       1.92291905e-08 
      -1.29246258e-09       9.76621006e-11       1.92291905e-08 
      -1.27954847e-09       9.76621006e-11       1.92314030e-08 
       1.34257716e-09       1.04570755e-10       2.10572264e-08 
       1.32916211e-09       1.04570755e-10       2.10549216e-08 
      -1.34258515e-09       1.06875467e-10       2.10549216e-08 
      -1.32917055e-09       1.06875467e-10       2.10572263e-08 
       1.34257716e-09       1.04570755e-10       2.10572264e-08 
       1.32916211e-09       1.04570755e-10       2.10549216e-08 
      -1.34258515e-09       1.06875467e-10       2.10549216e-08 
      -1.32917055e-09       1.06875467e-10       2.10572263e-08 
       1.39150735e-09       1.14036516e-10       2.29516769e-08 
       1.37760381e-09       1.14036516e-10       2.29492799e-08 
      -1.39151624e-09       1.16433432e-10       2.29492799e-08 
      -1.37761225e-09       1.16433432e-10       2.29516769e-08 
       1.39150735e-09       1.14036516e-10       2.29516769e-08 
       1.37760381e-09       1.14036516e-10       2.29492799e-08 
      -1.39151624e-09       1.16433432e-10       2.29492799e-08 
      -1.37761225e-09       1.16433432e-10       2.29516769e-08 
       1.43924650e-09       1.23838551e-10       2.49131031e-08 
       1.42486556e-09       1.23838551e-10       2.49106140e-08 
      -1.43925494e-09       1.26327643e-10       2.49106140e-08 
      -1.42487400e-09       1.26327643e-10       2.49131031e-08 
       1.43924650e-09       1.23838551e-10       2.49131031e-08 
       1.42486556e-09       1.23838551e-10       2.49106140e-08 
      -1.43925494e-09       1.26327643e-10       2.49106140e-08 
      -1.42487400e-09       1.26327643e-10       2.49131031e-08 
       1.48579327e-09       1.33968600e-10       2.69398537e-08 
       1.47094736e-09       1.33968600e-10       2.69372724e-08 
      -1.48580215e-09       1.36549896e-10       2.69372724e-08 
      -1.47095625e-09       1.36549896e-10       2.69398537e-08 
       1.48579327e-09       1.33968600e-10       2.69398537e-08 
       1.47094736e-09       1.33968600e-10       2.69372724e-08 
      -1.48580215e-09       1.36549896e-10       2.69372724e-08 
      -1.47095625e-09       1.36549896e-10       2.69398537e-08 
       1.53114854e-09       1.44418352e-10       2.90302771e-08 
       1.51584922e-09       1.44418352e-10       2.90276036e-08 
      -1.53115742e-09       1.47091825e-10       2.90276036e-08 
      -1.51585855e-09       1.47091825e-10       2.90302771e-08 
       1.53114854e-09       1.44418352e-10       2.90302771e-08 
       1.51584922e-09       1.44418352e-10       2.90276036e-08 
      -1.53115742e-09       1.47091825e-10       2.90276036e-08 
      -1.51585855e-09       1.47091825e-10       2.90302771e-08 
       1.57531188e-09       1.55179522e-10       3.11827219e-08 
       1.55957114e-09       1.55179522e-10       3.11799562e-08 
      -1.57532121e-09       1.57945171e-10       3.11799562e-08 
      -1.55958046e-09       1.57945171e-10       3.11827218e-08 
       1.57531188e-09       1.55179522e-10       3.11827219e-08 
       1.55957114e-09       1.55179522e-10       3.11799562e-08 
      -1.57532121e-09       1.57945171e-10       3.11799562e-08 
      -1.55958046e-09       1.57945171e-10       3.11827218e-08 
       1.61828329e-09       1.66243769e-10       3.33955365e-08 
       1.60211311e-09       1.66243769e-10       3.33926787e-08 
      -1.61829306e-09       1.69101622e-10       3.33926786e-08 
      -1.60212288e-09       1.69101622e-10       3.33955365e-08 
       1.61828329e-09       1.66243769e-10       3.33955365e-08 
       1.60211311e-09       1.66243769e-10       3.33926787e-08 
      -1.61829306e-09       1.69101622e-10       3.33926786e-08 
      -1.60212288e-09       1.69101622e-10       3.33955365e-08 
       1.66006320e-09       1.77602891e-10       3.56670697e-08 
       1.64347558e-09       1.77602891e-10       3.56641197e-08 
      -1.66007252e-09       1.80552920e-10       3.56641196e-08 
      -1.64348535e-09       1.80552920e-10       3.56670697e-08 
       1.66006320e-09       1.77602891e-10       3.56670697e-08 
       1.64347558e-09       1.77602891e-10       3.56641197e-08 
      -1.66007252e-09       1.80552920e-10       3.56641196e-08 
      -1.64348535e-09       1.80552920e-10       3.56670697e-08 
       1.70065073e-09       1.89248520e-10       3.79956699e-08 
       1.68365810e-09       1.89248520e-10       3.79926276e-08 
      -1.70066050e-09       1.92290753e-10       3.79926276e-08 
      -1.68366787e-09       1.92290753e-10       3.79956698e-08 
       1.70065073e-09       1.89248520e-10       3.79956699e-08 
       1.68365810e-09       1.89248520e-10       3.79926276e-08 
      -1.70066050e-09       1.92290753e-10       3.79926276e-08 
      -1.68366787e-09       1.92290753e-10       3.79956698e-08 
       1.74004677e-09       2.01172412e-10       4.03796856e-08 
       1.72266024e-09       2.01172412e-10       4.03765512e-08 
      -1.74005699e-09       2.04306821e-10       4.03765511e-08 
      -1.72267045e-09       2.04306821e-10       4.03796855e-08 
       1.74004677e-09       2.01172384e-10       4.03796856e-08 
       1.72266024e-09       2.01172412e-10       4.03765511e-08 
      -1.74005743e-09       2.04306849e-10       4.03765511e-08 
      -1.72267089e-09       2.04306821e-10       4.03796856e-08 
       1.77833037e-09       2.13372542e-10       4.28174959e-08 
       1.76056147e-09       2.13372570e-10       4.28142816e-08 
      -1.77834103e-09       2.16586915e-10       4.28142816e-08 
      -1.76057213e-09       2.16586887e-10       4.28174959e-08 
       1.77833037e-09       2.13372542e-10       4.28174959e-08 
       1.76056147e-09       2.13372570e-10       4.28142816e-08 
      -1.77834103e-09       2.16586915e-10       4.28142816e-08 
      -1.76057213e-09       2.16586887e-10       4.28174959e-08 
       1.81558102e-09       2.25835475e-10       4.53076391e-08 
       1.79743953e-09       2.25835517e-10       4.53043449e-08 
      -1.81559212e-09       2.29129743e-10       4.53043449e-08 
      -1.79745108e-09       2.29129701e-10       4.53076391e-08 
       1.81558102e-09       2.25835475e-10       4.53076391e-08 
       1.79743953e-09       2.25835517e-10       4.53043449e-08 
      -1.81559212e-09       2.29129743e-10       4.53043449e-08 
      -1.79745108e-09       2.29129701e-10       4.53076391e-08 
       1.85179916e-09       2.38553968e-10       4.78486839e-08 
       1.83329618e-09       2.38553996e-10       4.78453097e-08 
      -1.85180982e-09       2.41928130e-10       4.78453097e-08 
      -1.83330684e-09       2.41928103e-10       4.78486838e-08 
       1.85179916e-09       2.38553968e-10       4.78486839e-08 
       1.83329618e-09       2.38553996e-10       4.78453097e-08 
      -1.85180982e-09       2.41928130e-10       4.78453097e-08 
      -1.83330684e-09       2.41928103e-10       4.78486838e-08 
       1.88698390e-09       2.51520887e-10       5.04391989e-08 
       1.86812921e-09       2.51520915e-10       5.04357449e-08 
      -1.88699500e-09       2.54974930e-10       5.04357449e-08 
      -1.86814075e-09       2.54974902e-10       5.04391989e-08 
       1.88698390e-09       2.51520887e-10       5.04391989e-08 
       1.86812921e-09       2.51520915e-10       5.04357449e-08 
      -1.88699500e-09       2.54974930e-10       5.04357449e-08 
      -1.86814075e-09       2.54974902e-10       5.04391989e-08 
       1.92113614e-09       2.64728975e-10       5.30777530e-08 
       1.90194038e-09       2.64729016e-10       5.30742191e-08 
      -1.92114769e-09       2.68262940e-10       5.30742191e-08 
      -1.90195149e-09       2.68262898e-10       5.30777530e-08 
       1.92113614e-09       2.64728975e-10       5.30777530e-08 
       1.90194038e-09       2.64729016e-10       5.30742191e-08 
      -1.92114769e-09       2.68262940e-10       5.30742191e-08 
      -1.90195149e-09       2.68262898e-10       5.30777530e-08 
       1.95425498e-09       2.78171083e-10       5.57629149e-08 
       1.93472838e-09       2.78171111e-10       5.57593011e-08 
      -1.95426697e-09       2.81784943e-10       5.57593011e-08 
      -1.93474037e-09       2.81784915e-10       5.57629149e-08 
       1.95425498e-09       2.78171083e-10       5.57629149e-08 
       1.93472838e-09       2.78171111e-10       5.57593011e-08 
      -1.95426697e-09       2.81784943e-10       5.57593011e-08 
      -1.93474037e-09       2.81784915e-10       5.57629149e-08 
       1.98634131e-09       2.91840052e-10       5.84932533e-08 
       1.96649363e-09       2.91840080e-10       5.84895596e-08 
      -1.98635330e-09       2.95533792e-10       5.84895596e-08 
      -1.96650607e-09       2.95533764e-10       5.84932533e-08 
       1.98634131e-09       2.91840052e-10       5.84932533e-08 
       1.96649363e-09       2.91840080e-10       5.84895596e-08 
      -1.98635330e-09       2.95533792e-10       5.84895596e-08 
      -1.96650607e-09       2.95533764e-10       5.84932533e-08 
       2.01739514e-09       3.05728637e-10       6.12673370e-08 
       1.99723704e-09       3.05728678e-10       6.12635634e-08 
      -2.01740669e-09       3.09502299e-10       6.12635633e-08 
      -1.99724903e-09       3.09502257e-10       6.12673369e-08 
       2.01739514e-09       3.05728637e-10       6.12673370e-08 
       1.99723704e-09       3.05728678e-10       6.12635634e-08 