# vtk DataFile Version 2.0
./output/onsasExample_nonLinearCantileverBlade_staitc3D_pitch numElements=10/onsasExample_nonLinearCantileverBlade_staitc3D_pitch numElements=10_0007.vtk
ASCII
DATASET UNSTRUCTURED_GRID

POINTS 800 float
      -5.730973e-26      -7.180703e-02      -7.180703e-02 
      -3.032489e-25       7.180703e-02      -7.180703e-02 
       5.730973e-26       7.180703e-02       7.180703e-02 
       3.032489e-25      -7.180703e-02       7.180703e-02 
       1.000000e-01      -7.180703e-02      -7.180703e-02 
       1.000000e-01       7.180703e-02      -7.180703e-02 
       1.000000e-01       7.180703e-02       7.180703e-02 
       1.000000e-01      -7.180703e-02       7.180703e-02 
       1.000000e-01      -7.180703e-02      -7.180703e-02 
       1.000000e-01       7.180703e-02      -7.180703e-02 
       1.000000e-01       7.180703e-02       7.180703e-02 
       1.000000e-01      -7.180703e-02       7.180703e-02 
       2.000000e-01      -7.180703e-02      -7.180703e-02 
       2.000000e-01       7.180703e-02      -7.180703e-02 
       2.000000e-01       7.180703e-02       7.180704e-02 
       2.000000e-01      -7.180703e-02       7.180704e-02 
       2.000000e-01      -7.180703e-02      -7.180703e-02 
       2.000000e-01       7.180703e-02      -7.180703e-02 
       2.000000e-01       7.180703e-02       7.180704e-02 
       2.000000e-01      -7.180703e-02       7.180704e-02 
       3.000000e-01      -7.180703e-02      -7.180703e-02 
       3.000000e-01       7.180703e-02      -7.180703e-02 
       3.000000e-01       7.180703e-02       7.180704e-02 
       3.000000e-01      -7.180703e-02       7.180704e-02 
       3.000000e-01      -7.180703e-02      -7.180703e-02 
       3.000000e-01       7.180703e-02      -7.180703e-02 
       3.000000e-01       7.180703e-02       7.180704e-02 
       3.000000e-01      -7.180703e-02       7.180704e-02 
       4.000000e-01      -7.180703e-02      -7.180703e-02 
       4.000000e-01       7.180703e-02      -7.180703e-02 
       4.000000e-01       7.180703e-02       7.180704e-02 
       4.000000e-01      -7.180703e-02       7.180704e-02 
       4.000000e-01      -7.180703e-02      -7.180703e-02 
       4.000000e-01       7.180703e-02      -7.180703e-02 
       4.000000e-01       7.180703e-02       7.180704e-02 
       4.000000e-01      -7.180703e-02       7.180704e-02 
       5.000000e-01      -7.180703e-02      -7.180702e-02 
       5.000000e-01       7.180703e-02      -7.180702e-02 
       5.000000e-01       7.180703e-02       7.180705e-02 
       5.000000e-01      -7.180703e-02       7.180705e-02 
       5.000000e-01      -7.180703e-02      -7.180702e-02 
       5.000000e-01       7.180703e-02      -7.180702e-02 
       5.000000e-01       7.180703e-02       7.180705e-02 
       5.000000e-01      -7.180703e-02       7.180705e-02 
       6.000000e-01      -7.180703e-02      -7.180702e-02 
       6.000000e-01       7.180703e-02      -7.180702e-02 
       6.000000e-01       7.180703e-02       7.180705e-02 
       6.000000e-01      -7.180703e-02       7.180705e-02 
       6.000000e-01      -7.180703e-02      -7.180702e-02 
       6.000000e-01       7.180703e-02      -7.180702e-02 
       6.000000e-01       7.180703e-02       7.180705e-02 
       6.000000e-01      -7.180703e-02       7.180705e-02 
       7.000000e-01      -7.180703e-02      -7.180701e-02 
       7.000000e-01       7.180703e-02      -7.180701e-02 
       7.000000e-01       7.180703e-02       7.180706e-02 
       7.000000e-01      -7.180703e-02       7.180706e-02 
       7.000000e-01      -7.180703e-02      -7.180701e-02 
       7.000000e-01       7.180703e-02      -7.180701e-02 
       7.000000e-01       7.180703e-02       7.180706e-02 
       7.000000e-01      -7.180703e-02       7.180706e-02 
       8.000000e-01      -7.180703e-02      -7.180700e-02 
       8.000000e-01       7.180703e-02      -7.180700e-02 
       8.000000e-01       7.180703e-02       7.180706e-02 
       8.000000e-01      -7.180703e-02       7.180706e-02 
       8.000000e-01      -7.180703e-02      -7.180700e-02 
       8.000000e-01       7.180703e-02      -7.180700e-02 
       8.000000e-01       7.180703e-02       7.180706e-02 
       8.000000e-01      -7.180703e-02       7.180706e-02 
       9.000000e-01      -7.180703e-02      -7.180699e-02 
       9.000000e-01       7.180703e-02      -7.180699e-02 
       9.000000e-01       7.180703e-02       7.180707e-02 
       9.000000e-01      -7.180703e-02       7.180707e-02 
       9.000000e-01      -7.180703e-02      -7.180699e-02 
       9.000000e-01       7.180703e-02      -7.180699e-02 
       9.000000e-01       7.180703e-02       7.180707e-02 
       9.000000e-01      -7.180703e-02       7.180707e-02 
       1.000000e+00      -7.180703e-02      -7.180699e-02 
       1.000000e+00       7.180703e-02      -7.180699e-02 
       1.000000e+00       7.180703e-02       7.180708e-02 
       1.000000e+00      -7.180703e-02       7.180708e-02 
       1.000000e+00      -7.180703e-02      -7.180699e-02 
       1.000000e+00       7.180703e-02      -7.180699e-02 
       1.000000e+00       7.180703e-02       7.180708e-02 
       1.000000e+00      -7.180703e-02       7.180708e-02 
       1.100000e+00      -7.180703e-02      -7.180698e-02 
       1.100000e+00       7.180703e-02      -7.180698e-02 
       1.100000e+00       7.180703e-02       7.180709e-02 
       1.100000e+00      -7.180703e-02       7.180709e-02 
       1.100000e+00      -7.180703e-02      -7.180698e-02 
       1.100000e+00       7.180703e-02      -7.180698e-02 
       1.100000e+00       7.180703e-02       7.180709e-02 
       1.100000e+00      -7.180703e-02       7.180709e-02 
       1.200000e+00      -7.180703e-02      -7.180697e-02 
       1.200000e+00       7.180703e-02      -7.180697e-02 
       1.200000e+00       7.180703e-02       7.180710e-02 
       1.200000e+00      -7.180703e-02       7.180710e-02 
       1.200000e+00      -7.180703e-02      -7.180697e-02 
       1.200000e+00       7.180703e-02      -7.180697e-02 
       1.200000e+00       7.180703e-02       7.180710e-02 
       1.200000e+00      -7.180703e-02       7.180710e-02 
       1.300000e+00      -7.180703e-02      -7.180695e-02 
       1.300000e+00       7.180703e-02      -7.180695e-02 
       1.300000e+00       7.180703e-02       7.180711e-02 
       1.300000e+00      -7.180703e-02       7.180711e-02 
       1.300000e+00      -7.180703e-02      -7.180695e-02 
       1.300000e+00       7.180703e-02      -7.180695e-02 
       1.300000e+00       7.180703e-02       7.180711e-02 
       1.300000e+00      -7.180703e-02       7.180711e-02 
       1.400000e+00      -7.180703e-02      -7.180694e-02 
       1.400000e+00       7.180703e-02      -7.180694e-02 
       1.400000e+00       7.180703e-02       7.180712e-02 
       1.400000e+00      -7.180703e-02       7.180712e-02 
       1.400000e+00      -7.180703e-02      -7.180694e-02 
       1.400000e+00       7.180703e-02      -7.180694e-02 
       1.400000e+00       7.180703e-02       7.180712e-02 
       1.400000e+00      -7.180703e-02       7.180712e-02 
       1.500000e+00      -7.180703e-02      -7.180693e-02 
       1.500000e+00       7.180703e-02      -7.180693e-02 
       1.500000e+00       7.180703e-02       7.180714e-02 
       1.500000e+00      -7.180703e-02       7.180714e-02 
       1.500000e+00      -7.180703e-02      -7.180693e-02 
       1.500000e+00       7.180703e-02      -7.180693e-02 
       1.500000e+00       7.180703e-02       7.180714e-02 
       1.500000e+00      -7.180703e-02       7.180714e-02 
       1.600000e+00      -7.180703e-02      -7.180692e-02 
       1.600000e+00       7.180703e-02      -7.180692e-02 
       1.600000e+00       7.180703e-02       7.180715e-02 
       1.600000e+00      -7.180703e-02       7.180715e-02 
       1.600000e+00      -7.180703e-02      -7.180692e-02 
       1.600000e+00       7.180703e-02      -7.180692e-02 
       1.600000e+00       7.180703e-02       7.180715e-02 
       1.600000e+00      -7.180703e-02       7.180715e-02 
       1.700000e+00      -7.180703e-02      -7.180690e-02 
       1.700000e+00       7.180703e-02      -7.180690e-02 
       1.700000e+00       7.180703e-02       7.180716e-02 
       1.700000e+00      -7.180703e-02       7.180716e-02 
       1.700000e+00      -7.180703e-02      -7.180690e-02 
       1.700000e+00       7.180703e-02      -7.180690e-02 
       1.700000e+00       7.180703e-02       7.180716e-02 
       1.700000e+00      -7.180703e-02       7.180716e-02 
       1.800000e+00      -7.180703e-02      -7.180689e-02 
       1.800000e+00       7.180703e-02      -7.180689e-02 
       1.800000e+00       7.180703e-02       7.180718e-02 
       1.800000e+00      -7.180703e-02       7.180718e-02 
       1.800000e+00      -7.180703e-02      -7.180689e-02 
       1.800000e+00       7.180703e-02      -7.180689e-02 
       1.800000e+00       7.180703e-02       7.180718e-02 
       1.800000e+00      -7.180703e-02       7.180718e-02 
       1.900000e+00      -7.180703e-02      -7.180687e-02 
       1.900000e+00       7.180703e-02      -7.180687e-02 
       1.900000e+00       7.180703e-02       7.180719e-02 
       1.900000e+00      -7.180703e-02       7.180719e-02 
       1.900000e+00      -7.180703e-02      -7.180687e-02 
       1.900000e+00       7.180703e-02      -7.180687e-02 
       1.900000e+00       7.180703e-02       7.180719e-02 
       1.900000e+00      -7.180703e-02       7.180719e-02 
       2.000000e+00      -7.180703e-02      -7.180686e-02 
       2.000000e+00       7.180703e-02      -7.180686e-02 
       2.000000e+00       7.180703e-02       7.180721e-02 
       2.000000e+00      -7.180703e-02       7.180721e-02 
       2.000000e+00      -7.180703e-02      -7.180686e-02 
       2.000000e+00       7.180703e-02      -7.180686e-02 
       2.000000e+00       7.180703e-02       7.180721e-02 
       2.000000e+00      -7.180703e-02       7.180721e-02 
       2.100000e+00      -7.180703e-02      -7.180684e-02 
[...]
POINT_DATA       800 
VECTORS Displacements float
      -5.73097300e-26       1.38777878e-17       0.00000000e+00 
      -3.03248944e-25       1.38777878e-17       0.00000000e+00 
       5.73097300e-26      -1.38777878e-17       0.00000000e+00 
       3.03248944e-25      -1.38777878e-17       0.00000000e+00 
       7.25899549e-10       4.87186680e-12       5.02212646e-10 
       7.10937489e-10       4.87186680e-12       5.01504741e-10 
      -7.25940363e-10       5.57977275e-12       5.01504741e-10 
      -7.10978304e-10       5.57977275e-12       5.02212646e-10 
       7.25899549e-10       4.87186680e-12       5.02212646e-10 
       7.10937489e-10       4.87186680e-12       5.01504741e-10 
      -7.25940363e-10       5.57977275e-12       5.01504741e-10 
      -7.10978304e-10       5.57977275e-12       5.02212646e-10 
       1.43785081e-09       2.00618688e-11       1.99532638e-09 
       1.40821413e-09       2.00618688e-11       1.99391056e-09 
      -1.43793255e-09       2.14776807e-11       1.99391055e-09 
      -1.40829587e-09       2.14776807e-11       1.99532636e-09 
       1.43785081e-09       2.00618688e-11       1.99532638e-09 
       1.40821413e-09       2.00618688e-11       1.99391056e-09 
      -1.43793255e-09       2.14776807e-11       1.99391055e-09 
      -1.40829587e-09       2.14776807e-11       1.99532636e-09 
       2.13585383e-09       4.53698745e-11       4.46011679e-09 
       2.09183004e-09       4.53698745e-11       4.45799307e-09 
      -2.13597656e-09       4.74935924e-11       4.45799302e-09 
      -2.09195278e-09       4.74935924e-11       4.46011673e-09 
       2.13585383e-09       4.53698745e-11       4.46011679e-09 
       2.09183004e-09       4.53698745e-11       4.45799307e-09 
      -2.13597656e-09       4.74935924e-11       4.45799302e-09 
      -2.09195278e-09       4.74935924e-11       4.46011673e-09 
       2.81990853e-09       8.05956829e-11       7.87735946e-09 
       2.76178513e-09       8.05956829e-11       7.87452782e-09 
      -2.82007234e-09       8.34273067e-11       7.87452772e-09 
      -2.76194895e-09       8.34273067e-11       7.87735936e-09 
       2.81990853e-09       8.05956829e-11       7.87735946e-09 
       2.76178513e-09       8.05956829e-11       7.87452782e-09 
      -2.82007234e-09       8.34273067e-11       7.87452772e-09 
      -2.76194895e-09       8.34273067e-11       7.87735936e-09 
       3.49001494e-09       1.25539093e-10       1.22278299e-08 
       3.41807949e-09       1.25539093e-10       1.22242904e-08 
      -3.49021995e-09       1.29078623e-10       1.22242902e-08 
      -3.41828443e-09       1.29078623e-10       1.22278298e-08 
       3.49001494e-09       1.25539093e-10       1.22278299e-08 
       3.41807949e-09       1.25539093e-10       1.22242904e-08 
      -3.49021995e-09       1.29078623e-10       1.22242902e-08 
      -3.41828443e-09       1.29078623e-10       1.22278298e-08 
       4.14617307e-09       1.79999946e-10       1.74923038e-08 
       4.06071299e-09       1.79999946e-10       1.74880564e-08 
      -4.14641932e-09       1.84247381e-10       1.74880561e-08 
      -4.06095924e-09       1.84247381e-10       1.74923036e-08 
       4.14617307e-09       1.79999946e-10       1.74923038e-08 
       4.06071299e-09       1.79999946e-10       1.74880564e-08 
      -4.14641932e-09       1.84247381e-10       1.74880561e-08 
      -4.06095924e-09       1.84247381e-10       1.74923036e-08 
       4.78838302e-09       2.43778053e-10       2.36515567e-08 
       4.68968575e-09       2.43778053e-10       2.36466013e-08 
      -4.78867057e-09       2.48733395e-10       2.36466010e-08 
      -4.68997330e-09       2.48733395e-10       2.36515564e-08 
       4.78838302e-09       2.43778053e-10       2.36515567e-08 
       4.68968575e-09       2.43778053e-10       2.36466013e-08 
      -4.78867057e-09       2.48733395e-10       2.36466010e-08 
      -4.68997330e-09       2.48733395e-10       2.36515564e-08 
       5.41664458e-09       3.16673229e-10       3.06863640e-08 
       5.30499766e-09       3.16673229e-10       3.06807008e-08 
      -5.41697365e-09       3.22336477e-10       3.06807004e-08 
      -5.30532673e-09       3.22336477e-10       3.06863637e-08 
       5.41664458e-09       3.16673229e-10       3.06863640e-08 
       5.30499766e-09       3.16673229e-10       3.06807008e-08 
      -5.41697365e-09       3.22336477e-10       3.06807004e-08 
      -5.30532673e-09       3.22336477e-10       3.06863637e-08 
       6.03095796e-09       3.98485286e-10       3.85775016e-08 
       5.90664895e-09       3.98485286e-10       3.85711304e-08 
      -6.03132833e-09       4.04856440e-10       3.85711299e-08 
      -5.90701932e-09       4.04856440e-10       3.85775011e-08 
       6.03095796e-09       3.98485286e-10       3.85775016e-08 
       5.90664895e-09       3.98485286e-10       3.85711304e-08 
      -6.03132833e-09       4.04856440e-10       3.85711299e-08 
      -5.90701932e-09       4.04856440e-10       3.85775011e-08 
       6.63132305e-09       4.89014065e-10       4.73057448e-08 
       6.49463927e-09       4.89014065e-10       4.72986657e-08 
      -6.63173505e-09       4.96093111e-10       4.72986650e-08 
      -6.49505127e-09       4.96093111e-10       4.73057441e-08 
       6.63132305e-09       4.89014038e-10       4.73057448e-08 
       6.49463927e-09       4.89014065e-10       4.72986656e-08 
      -6.63173505e-09       4.96093153e-10       4.72986651e-08 
      -6.49505139e-09       4.96093125e-10       4.73057442e-08 
       7.21848115e-09       5.88100096e-10       5.68521692e-08 
       7.06969505e-09       5.88100124e-10       5.68444567e-08 
      -7.21892035e-09       5.95812608e-10       5.68444560e-08 
      -7.07013426e-09       5.95812566e-10       5.68521685e-08 
       7.21848115e-09       5.88100096e-10       5.68521692e-08 
       7.06969505e-09       5.88100124e-10       5.68444567e-08 
      -7.21892035e-09       5.95812608e-10       5.68444560e-08 
      -7.07013426e-09       5.95812566e-10       5.68521685e-08 
       7.79315923e-09       6.95523583e-10       6.71992741e-08 
       7.63252817e-09       6.95523611e-10       6.71909283e-08 
      -7.79362552e-09       7.03869477e-10       6.71909275e-08 
      -7.63299446e-09       7.03869435e-10       6.71992733e-08 
       7.79315923e-09       6.95523583e-10       6.71992741e-08 
       7.63252817e-09       6.95523611e-10       6.71909283e-08 
      -7.79362552e-09       7.03869477e-10       6.71909275e-08 
      -7.63299446e-09       7.03869435e-10       6.71992733e-08 
       8.35535729e-09       8.11105363e-10       7.83298587e-08 
       8.18313839e-09       8.11105405e-10       7.83208795e-08 
      -8.35585112e-09       8.20084639e-10       7.83208785e-08 
      -8.18363222e-09       8.20084597e-10       7.83298578e-08 
       8.35535729e-09       8.11105363e-10       7.83298587e-08 
       8.18313839e-09       8.11105405e-10       7.83208795e-08 
      -8.35585112e-09       8.20084639e-10       7.83208785e-08 
      -8.18363222e-09       8.20084597e-10       7.83298578e-08 
       8.90507534e-09       9.34666330e-10       9.02267222e-08 
       8.72152572e-09       9.34666358e-10       9.02171095e-08 
      -8.90559670e-09       9.44279002e-10       9.02171085e-08 
      -8.72204708e-09       9.44278974e-10       9.02267211e-08 
       8.90507534e-09       9.34666330e-10       9.02267222e-08 
       8.72152572e-09       9.34666358e-10       9.02171095e-08 
      -8.90559670e-09       9.44279002e-10       9.02171085e-08 
      -8.72204708e-09       9.44278974e-10       9.02267211e-08 
       9.44231293e-09       1.06602739e-09       1.02872664e-07 
       9.24768995e-09       1.06602742e-09       1.02862418e-07 
      -9.44286249e-09       1.07627345e-09       1.02862416e-07 
      -9.24823929e-09       1.07627342e-09       1.02872662e-07 
       9.44231293e-09       1.06602739e-09       1.02872664e-07 
       9.24768995e-09       1.06602742e-09       1.02862418e-07 
      -9.44286249e-09       1.07627345e-09       1.02862416e-07 
      -9.24823929e-09       1.07627342e-09       1.02872662e-07 
       9.96707072e-09       1.20500941e-09       1.16250482e-07 
       9.76163150e-09       1.20500944e-09       1.16239603e-07 
      -9.96764804e-09       1.21588885e-09       1.16239602e-07 
      -9.76220904e-09       1.21588882e-09       1.16250481e-07 
       9.96707072e-09       1.20500941e-09       1.16250482e-07 
       9.76163150e-09       1.20500944e-09       1.16239603e-07 
      -9.96764804e-09       1.21588885e-09       1.16239602e-07 
      -9.76220904e-09       1.21588882e-09       1.16250481e-07 
       1.04793483e-08       1.35143330e-09       1.30342978e-07 
       1.02633502e-08       1.35143334e-09       1.30331465e-07 
      -1.04799540e-08       1.36294614e-09       1.30331463e-07 
      -1.02639559e-08       1.36294612e-09       1.30342976e-07 
       1.04793483e-08       1.35143330e-09       1.30342978e-07 
       1.02633502e-08       1.35143334e-09       1.30331465e-07 
      -1.04799540e-08       1.36294614e-09       1.30331463e-07 
      -1.02639559e-08       1.36294612e-09       1.30342976e-07 
       1.09791458e-08       1.50511993e-09       1.45132949e-07 
       1.07528459e-08       1.50511997e-09       1.45120802e-07 
      -1.09797800e-08       1.51726616e-09       1.45120801e-07 
      -1.07534801e-08       1.51726613e-09       1.45132947e-07 
       1.09791458e-08       1.50511993e-09       1.45132949e-07 
       1.07528459e-08       1.50511997e-09       1.45120802e-07 
      -1.09797800e-08       1.51726616e-09       1.45120801e-07 
      -1.07534801e-08       1.51726613e-09       1.45132947e-07 
       1.14664633e-08       1.66589023e-09       1.60603194e-07 
       1.12301191e-08       1.66589026e-09       1.60590415e-07 
      -1.14671259e-08       1.67866984e-09       1.60590413e-07 
      -1.12307816e-08       1.67866980e-09       1.60603192e-07 
       1.14664633e-08       1.66589023e-09       1.60603194e-07 
       1.12301191e-08       1.66589026e-09       1.60590415e-07 
      -1.14671259e-08       1.67866984e-09       1.60590413e-07 
      -1.12307816e-08       1.67866980e-09       1.60603192e-07 
       1.19413008e-08       1.83356504e-09       1.76736514e-07 
       1.16951693e-08       1.83356506e-09       1.76723101e-07 
      -1.19419921e-08       1.84697803e-09       1.76723099e-07 
      -1.16958605e-08       1.84697799e-09       1.76736512e-07 
       1.19413008e-08       1.83356505e-09       1.76736514e-07 
       1.16951688e-08       1.83356505e-09       1.76723101e-07 
      -1.19419921e-08       1.84697799e-09       1.76723099e-07 
      -1.16958605e-08       1.84697799e-09       1.76736512e-07 
       1.24043971e-08       2.00800604e-09       1.93516007e-07 
       1.21487203e-08       2.00800604e-09       1.93502035e-07 
      -1.24051072e-08       2.02197788e-09       1.93502033e-07 
      -1.21494308e-08       2.02197788e-09       1.93516005e-07 
       1.24043971e-08       2.00800604e-09       1.93516007e-07 
       1.21487203e-08       2.00800604e-09       1.93502035e-07 
      -1.24051072e-08       2.02197788e-09       1.93502033e-07 
      -1.21494308e-08       2.02197788e-09       1.93516005e-07 
       1.28564817e-08       2.18901443e-09       2.10926196e-07 
       1.25914865e-08       2.18901443e-09       2.10911665e-07 
      -1.28572109e-08       2.20354512e-09       2.10911663e-07 
      -1.25922162e-08       2.20354512e-09       2.10926194e-07 
       1.28564817e-08       2.18901443e-09       2.10926196e-07 
       1.25914865e-08       2.18901443e-09       2.10911665e-07 
      -1.28572109e-08       2.20354512e-09       2.10911663e-07 
      -1.25922162e-08       2.20354512e-09       2.10926194e-07 
       1.32975546e-08       2.37643215e-09       2.28951904e-07 
       1.30234685e-08       2.37643215e-09       2.28936814e-07 
      -1.32983025e-08       2.39152172e-09       2.28936812e-07 
      -1.30242164e-08       2.39152172e-09       2.28951902e-07 
       1.32975546e-08       2.37643215e-09       2.28951904e-07 
       1.30234685e-08       2.37643215e-09       2.28936814e-07 
      -1.32983025e-08       2.39152172e-09       2.28936812e-07 
      -1.30242164e-08       2.39152172e-09       2.28951902e-07 
       1.37276155e-08       2.57010117e-09       2.47577954e-07 
       1.34446649e-08       2.57010117e-09       2.47562305e-07 
      -1.37283829e-08       2.58574960e-09       2.47562303e-07 
      -1.34454323e-08       2.58574960e-09       2.47577951e-07 
       1.37276155e-08       2.57010117e-09       2.47577954e-07 
       1.34446649e-08       2.57010117e-09       2.47562305e-07 
      -1.37283829e-08       2.58574960e-09       2.47562303e-07 
      -1.34454323e-08       2.58574960e-09       2.47577951e-07 
       1.41466643e-08       2.76986346e-09       2.66789168e-07 
       1.38550766e-08       2.76986346e-09       2.66772961e-07 
      -1.41474517e-08       2.78607078e-09       2.66772958e-07 
      -1.38558640e-08       2.78607078e-09       2.66789165e-07 
       1.41466643e-08       2.76986346e-09       2.66789168e-07 
       1.38550766e-08       2.76986346e-09       2.66772961e-07 
      -1.41474517e-08       2.78607078e-09       2.66772958e-07 
      -1.38558640e-08       2.78607078e-09       2.66789165e-07 
       1.45547014e-08       2.97556101e-09       2.86570370e-07 
       1.42547032e-08       2.97556101e-09       2.86553603e-07 
      -1.45555084e-08       2.99232718e-09       2.86553600e-07 
      -1.42555105e-08       2.99232718e-09       2.86570367e-07 
       1.45547014e-08       2.97556101e-09       2.86570370e-07 
       1.42547032e-08       2.97556101e-09       2.86553603e-07 
      -1.45555084e-08       2.99232718e-09       2.86553600e-07 
      -1.42555105e-08       2.99232718e-09       2.86570367e-07 
       1.49517265e-08       3.18703569e-09       3.06906381e-07 
       1.46435450e-08       3.18703569e-09       3.06889056e-07 
      -1.49525539e-08       3.20436075e-09       3.06889053e-07 
      -1.46443724e-08       3.20436075e-09       3.06906378e-07 
       1.49517265e-08       3.18703569e-09       3.06906381e-07 
       1.46435450e-08       3.18703569e-09       3.06889056e-07 
      -1.49525539e-08       3.20436075e-09       3.06889053e-07 
      -1.46443724e-08       3.20436075e-09       3.06906378e-07 
       1.53377404e-08       3.40412958e-09       3.27782026e-07 
       1.50216026e-08       3.40412958e-09       3.27764142e-07 
      -1.53385873e-08       3.42201348e-09       3.27764139e-07 
      -1.50224491e-08       3.42201348e-09       3.27782023e-07 
       1.53377404e-08       3.40412958e-09       3.27782026e-07 
       1.50216026e-08       3.40412958e-09       3.27764142e-07 
      -1.53385873e-08       3.42201348e-09       3.27764139e-07 
      -1.50224491e-08       3.42201348e-09       3.27782023e-07 
       1.57127418e-08       3.62668454e-09       3.49182127e-07 
       1.53888746e-08       3.62668454e-09       3.49163684e-07 
      -1.57136095e-08       3.64512732e-09       3.49163680e-07 
      -1.53897419e-08       3.64512732e-09       3.49182123e-07 
       1.57127418e-08       3.62668454e-09       3.49182127e-07 
       1.53888746e-08       3.62668454e-09       3.49163684e-07 
      -1.57136095e-08       3.64512732e-09       3.49163680e-07 
      -1.53897419e-08       3.64512732e-09       3.49182123e-07 
       1.60767315e-08       3.85454257e-09       3.71091506e-07 
       1.57453615e-08       3.85454257e-09       3.71072504e-07 
      -1.60776197e-08       3.87354424e-09       3.71072501e-07 
      -1.57462496e-08       3.87354424e-09       3.71091502e-07 
       1.60767315e-08       3.85454257e-09       3.71091506e-07 
       1.57453615e-08       3.85454257e-09       3.71072504e-07 
      -1.60776197e-08       3.87354424e-09       3.71072501e-07 
      -1.57462496e-08       3.87354424e-09       3.71091502e-07 
       1.64304468e-08       4.08758641e-09       3.93495286e-07 
       1.60917861e-08       4.08758641e-09       3.93475800e-07 
      -1.64313492e-08       4.10707245e-09       3.93475797e-07 
      -1.60926885e-08       4.10707245e-09       3.93495283e-07 
       1.64304468e-08       4.08758641e-09       3.93495286e-07 
       1.60917861e-08       4.08758641e-09       3.93475800e-07 
      -1.64313492e-08       4.10707245e-09       3.93475797e-07 
      -1.60926885e-08       4.10707245e-09       3.93495283e-07 
       1.67746181e-08       4.32563833e-09       4.16380015e-07 
       1.64288640e-08       4.32563833e-09       4.16360045e-07 
      -1.67755352e-08       4.34560872e-09       4.16360041e-07 
      -1.64297806e-08       4.34560872e-09       4.16380011e-07 
       1.67746181e-08       4.32563833e-09       4.16380015e-07 
       1.64288640e-08       4.32563833e-09       4.16360045e-07 
      -1.67755352e-08       4.34560872e-09       4.16360041e-07 
      -1.64297806e-08       4.34560872e-09       4.16380011e-07 
       1.71092469e-08       4.56856135e-09       4.39732538e-07 
       1.67565952e-08       4.56856135e-09       4.39712083e-07 
      -1.71101773e-08       4.58901607e-09       4.39712079e-07 
      -1.67575256e-08       4.58901607e-09       4.39732534e-07 
       1.71092469e-08       4.56856135e-09       4.39732538e-07 
       1.67565952e-08       4.56856135e-09       4.39712083e-07 
      -1.71101773e-08       4.58901607e-09       4.39712079e-07 
      -1.67575256e-08       4.58901607e-09       4.39732534e-07 
       1.74343309e-08       4.81621851e-09       4.63539702e-07 
       1.70749788e-08       4.81621851e-09       4.63518762e-07 
      -1.74352763e-08       4.83715759e-09       4.63518758e-07 
      -1.70759242e-08       4.83715759e-09       4.63539698e-07 
       1.74343309e-08       4.81621851e-09       4.63539702e-07 
       1.70749788e-08       4.81621851e-09       4.63518762e-07 
      -1.74352763e-08       4.83715759e-09       4.63518758e-07 
      -1.70759242e-08       4.83715759e-09       4.63539698e-07 
       1.77498718e-08       5.06847281e-09       4.87788353e-07 
       1.73840156e-08       5.06847281e-09       4.87766929e-07 
      -1.77508319e-08       5.08989625e-09       4.87766925e-07 
      -1.73849761e-08       5.08989625e-09       4.87788348e-07 
       1.77498718e-08       5.06847281e-09       4.87788353e-07 
       1.73840156e-08       5.06847281e-09       4.87766929e-07 
      -1.77508319e-08       5.08989625e-09       4.87766925e-07 
      -1.73849761e-08       5.08989625e-09       4.87788348e-07 
       1.80558688e-08       5.32518732e-09       5.12465337e-07 
       1.76837056e-08       5.32518732e-09       5.12443429e-07 
      -1.80568445e-08       5.34709513e-09       5.12443425e-07 
      -1.76846813e-08       5.34709513e-09       5.12465333e-07 
       1.80558688e-08       5.32518732e-09       5.12465337e-07 
       1.76837056e-08       5.32518732e-09       5.12443429e-07 
      -1.80568445e-08       5.34709513e-09       5.12443425e-07 
      -1.76846813e-08       5.34709513e-09       5.12465333e-07 
       1.83523223e-08       5.58622508e-09       5.37557502e-07 
       1.79740485e-08       5.58622508e-09       5.37535110e-07 
      -1.83533135e-08       5.60861722e-09       5.37535105e-07 
      -1.79750401e-08       5.60861722e-09       5.37557498e-07 
       1.83523223e-08       5.58622508e-09       5.37557502e-07 
       1.79740485e-08       5.58622508e-09       5.37535110e-07 
      -1.83533135e-08       5.60861722e-09       5.37535105e-07 
      -1.79750401e-08       5.60861722e-09       5.37557498e-07 
       1.86392324e-08       5.85144909e-09       5.63051694e-07 
       1.82550455e-08       5.85144909e-09       5.63028817e-07 
      -1.86402382e-08       5.87432560e-09       5.63028812e-07 
      -1.82560509e-08       5.87432560e-09       5.63051689e-07 
       1.86392324e-08       5.85144909e-09       5.63051694e-07 
       1.82550455e-08       5.85144909e-09       5.63028817e-07 