# vtk DataFile Version 2.0
./output/onsasExample_nonLinearCantileverBlade_staitc3D_pitch numElements=10/onsasExample_nonLinearCantileverBlade_staitc3D_pitch numElements=10_0012.vtk
ASCII
DATASET UNSTRUCTURED_GRID

POINTS 800 float
      -5.667261e-25      -7.180703e-02      -7.180703e-02 
       4.450794e-25       7.180703e-02      -7.180703e-02 
       5.667261e-25       7.180703e-02       7.180703e-02 
      -4.450794e-25      -7.180703e-02       7.180703e-02 
       1.000000e-01      -7.180703e-02      -7.180703e-02 
       1.000000e-01       7.180703e-02      -7.180703e-02 
       1.000000e-01       7.180703e-02       7.180703e-02 
       1.000000e-01      -7.180703e-02       7.180703e-02 
       1.000000e-01      -7.180703e-02      -7.180703e-02 
       1.000000e-01       7.180703e-02      -7.180703e-02 
       1.000000e-01       7.180703e-02       7.180703e-02 
       1.000000e-01      -7.180703e-02       7.180703e-02 
       2.000000e-01      -7.180703e-02      -7.180703e-02 
       2.000000e-01       7.180703e-02      -7.180703e-02 
       2.000000e-01       7.180703e-02       7.180704e-02 
       2.000000e-01      -7.180703e-02       7.180704e-02 
       2.000000e-01      -7.180703e-02      -7.180703e-02 
       2.000000e-01       7.180703e-02      -7.180703e-02 
       2.000000e-01       7.180703e-02       7.180704e-02 
       2.000000e-01      -7.180703e-02       7.180704e-02 
       3.000000e-01      -7.180703e-02      -7.180702e-02 
       3.000000e-01       7.180703e-02      -7.180702e-02 
       3.000000e-01       7.180703e-02       7.180705e-02 
       3.000000e-01      -7.180703e-02       7.180705e-02 
       3.000000e-01      -7.180703e-02      -7.180702e-02 
       3.000000e-01       7.180703e-02      -7.180702e-02 
       3.000000e-01       7.180703e-02       7.180705e-02 
       3.000000e-01      -7.180703e-02       7.180705e-02 
       4.000000e-01      -7.180703e-02      -7.180701e-02 
       4.000000e-01       7.180703e-02      -7.180701e-02 
       4.000000e-01       7.180703e-02       7.180706e-02 
       4.000000e-01      -7.180703e-02       7.180706e-02 
       4.000000e-01      -7.180703e-02      -7.180701e-02 
       4.000000e-01       7.180703e-02      -7.180701e-02 
       4.000000e-01       7.180703e-02       7.180706e-02 
       4.000000e-01      -7.180703e-02       7.180706e-02 
       5.000000e-01      -7.180703e-02      -7.180699e-02 
       5.000000e-01       7.180703e-02      -7.180699e-02 
       5.000000e-01       7.180703e-02       7.180708e-02 
       5.000000e-01      -7.180703e-02       7.180708e-02 
       5.000000e-01      -7.180703e-02      -7.180699e-02 
       5.000000e-01       7.180703e-02      -7.180699e-02 
       5.000000e-01       7.180703e-02       7.180708e-02 
       5.000000e-01      -7.180703e-02       7.180708e-02 
       6.000000e-01      -7.180703e-02      -7.180697e-02 
       6.000000e-01       7.180703e-02      -7.180697e-02 
       6.000000e-01       7.180703e-02       7.180709e-02 
       6.000000e-01      -7.180703e-02       7.180709e-02 
       6.000000e-01      -7.180703e-02      -7.180697e-02 
       6.000000e-01       7.180703e-02      -7.180697e-02 
       6.000000e-01       7.180703e-02       7.180709e-02 
       6.000000e-01      -7.180703e-02       7.180709e-02 
       7.000000e-01      -7.180703e-02      -7.180695e-02 
       7.000000e-01       7.180703e-02      -7.180695e-02 
       7.000000e-01       7.180703e-02       7.180712e-02 
       7.000000e-01      -7.180703e-02       7.180712e-02 
       7.000000e-01      -7.180703e-02      -7.180695e-02 
       7.000000e-01       7.180703e-02      -7.180695e-02 
       7.000000e-01       7.180703e-02       7.180712e-02 
       7.000000e-01      -7.180703e-02       7.180712e-02 
       8.000000e-01      -7.180703e-02      -7.180693e-02 
       8.000000e-01       7.180704e-02      -7.180693e-02 
       8.000000e-01       7.180704e-02       7.180714e-02 
       8.000000e-01      -7.180703e-02       7.180714e-02 
       8.000000e-01      -7.180703e-02      -7.180693e-02 
       8.000000e-01       7.180704e-02      -7.180693e-02 
       8.000000e-01       7.180704e-02       7.180714e-02 
       8.000000e-01      -7.180703e-02       7.180714e-02 
       9.000000e-01      -7.180703e-02      -7.180690e-02 
       9.000000e-01       7.180704e-02      -7.180690e-02 
       9.000000e-01       7.180704e-02       7.180717e-02 
       9.000000e-01      -7.180703e-02       7.180717e-02 
       9.000000e-01      -7.180703e-02      -7.180690e-02 
       9.000000e-01       7.180704e-02      -7.180690e-02 
       9.000000e-01       7.180704e-02       7.180717e-02 
       9.000000e-01      -7.180703e-02       7.180717e-02 
       1.000000e+00      -7.180703e-02      -7.180687e-02 
       1.000000e+00       7.180704e-02      -7.180687e-02 
       1.000000e+00       7.180704e-02       7.180720e-02 
       1.000000e+00      -7.180703e-02       7.180720e-02 
       1.000000e+00      -7.180703e-02      -7.180687e-02 
       1.000000e+00       7.180704e-02      -7.180687e-02 
       1.000000e+00       7.180704e-02       7.180720e-02 
       1.000000e+00      -7.180703e-02       7.180720e-02 
       1.100000e+00      -7.180703e-02      -7.180683e-02 
       1.100000e+00       7.180704e-02      -7.180683e-02 
       1.100000e+00       7.180704e-02       7.180723e-02 
       1.100000e+00      -7.180703e-02       7.180723e-02 
       1.100000e+00      -7.180703e-02      -7.180683e-02 
       1.100000e+00       7.180704e-02      -7.180683e-02 
       1.100000e+00       7.180704e-02       7.180723e-02 
       1.100000e+00      -7.180703e-02       7.180723e-02 
       1.200000e+00      -7.180703e-02      -7.180680e-02 
       1.200000e+00       7.180704e-02      -7.180680e-02 
       1.200000e+00       7.180704e-02       7.180727e-02 
       1.200000e+00      -7.180703e-02       7.180727e-02 
       1.200000e+00      -7.180703e-02      -7.180680e-02 
       1.200000e+00       7.180704e-02      -7.180680e-02 
       1.200000e+00       7.180704e-02       7.180727e-02 
       1.200000e+00      -7.180703e-02       7.180727e-02 
       1.300000e+00      -7.180703e-02      -7.180676e-02 
       1.300000e+00       7.180704e-02      -7.180676e-02 
       1.300000e+00       7.180704e-02       7.180731e-02 
       1.300000e+00      -7.180703e-02       7.180731e-02 
       1.300000e+00      -7.180703e-02      -7.180676e-02 
       1.300000e+00       7.180704e-02      -7.180676e-02 
       1.300000e+00       7.180704e-02       7.180731e-02 
       1.300000e+00      -7.180703e-02       7.180731e-02 
       1.400000e+00      -7.180703e-02      -7.180672e-02 
       1.400000e+00       7.180704e-02      -7.180672e-02 
       1.400000e+00       7.180704e-02       7.180735e-02 
       1.400000e+00      -7.180703e-02       7.180735e-02 
       1.400000e+00      -7.180703e-02      -7.180672e-02 
       1.400000e+00       7.180704e-02      -7.180672e-02 
       1.400000e+00       7.180704e-02       7.180735e-02 
       1.400000e+00      -7.180703e-02       7.180735e-02 
       1.500000e+00      -7.180703e-02      -7.180667e-02 
       1.500000e+00       7.180704e-02      -7.180667e-02 
       1.500000e+00       7.180704e-02       7.180739e-02 
       1.500000e+00      -7.180703e-02       7.180739e-02 
       1.500000e+00      -7.180703e-02      -7.180667e-02 
       1.500000e+00       7.180704e-02      -7.180667e-02 
       1.500000e+00       7.180704e-02       7.180739e-02 
       1.500000e+00      -7.180703e-02       7.180739e-02 
       1.600000e+00      -7.180703e-02      -7.180663e-02 
       1.600000e+00       7.180704e-02      -7.180663e-02 
       1.600000e+00       7.180704e-02       7.180744e-02 
       1.600000e+00      -7.180703e-02       7.180744e-02 
       1.600000e+00      -7.180703e-02      -7.180663e-02 
       1.600000e+00       7.180704e-02      -7.180663e-02 
       1.600000e+00       7.180704e-02       7.180744e-02 
       1.600000e+00      -7.180703e-02       7.180744e-02 
       1.700000e+00      -7.180702e-02      -7.180658e-02 
       1.700000e+00       7.180704e-02      -7.180658e-02 
       1.700000e+00       7.180704e-02       7.180749e-02 
       1.700000e+00      -7.180702e-02       7.180749e-02 
       1.700000e+00      -7.180702e-02      -7.180658e-02 
       1.700000e+00       7.180704e-02      -7.180658e-02 
       1.700000e+00       7.180704e-02       7.180749e-02 
       1.700000e+00      -7.180702e-02       7.180749e-02 
       1.800000e+00      -7.180702e-02      -7.180652e-02 
       1.800000e+00       7.180704e-02      -7.180652e-02 
       1.800000e+00       7.180704e-02       7.180754e-02 
       1.800000e+00      -7.180702e-02       7.180754e-02 
       1.800000e+00      -7.180702e-02      -7.180652e-02 
       1.800000e+00       7.180704e-02      -7.180652e-02 
       1.800000e+00       7.180704e-02       7.180754e-02 
       1.800000e+00      -7.180702e-02       7.180754e-02 
       1.900000e+00      -7.180702e-02      -7.180647e-02 
       1.900000e+00       7.180704e-02      -7.180647e-02 
       1.900000e+00       7.180704e-02       7.180760e-02 
       1.900000e+00      -7.180702e-02       7.180760e-02 
       1.900000e+00      -7.180702e-02      -7.180647e-02 
       1.900000e+00       7.180704e-02      -7.180647e-02 
       1.900000e+00       7.180704e-02       7.180760e-02 
       1.900000e+00      -7.180702e-02       7.180760e-02 
       2.000000e+00      -7.180702e-02      -7.180641e-02 
       2.000000e+00       7.180705e-02      -7.180641e-02 
       2.000000e+00       7.180705e-02       7.180765e-02 
       2.000000e+00      -7.180702e-02       7.180765e-02 
       2.000000e+00      -7.180702e-02      -7.180641e-02 
       2.000000e+00       7.180705e-02      -7.180641e-02 
       2.000000e+00       7.180705e-02       7.180765e-02 
       2.000000e+00      -7.180702e-02       7.180765e-02 
       2.100000e+00      -7.180702e-02      -7.180635e-02 
[...]
POINT_DATA       800 
VECTORS Displacements float
      -5.66726080e-25       1.38777878e-17       0.00000000e+00 
       4.45079375e-25       0.00000000e+00       0.00000000e+00 
       5.66726080e-25      -1.38777878e-17       0.00000000e+00 
      -4.45079375e-25       0.00000000e+00       0.00000000e+00 
       2.56689302e-09       3.27252669e-11       1.76052936e-09 
       2.46784833e-09       3.27252531e-11       1.75679316e-09 
      -2.56739639e-09       3.64614589e-11       1.75679304e-09 
      -2.46835170e-09       3.64614727e-11       1.76052926e-09 
       2.56689302e-09       3.27252669e-11       1.76052936e-09 
       2.46784833e-09       3.27252531e-11       1.75679316e-09 
      -2.56739639e-09       3.64614589e-11       1.75679304e-09 
      -2.46835170e-09       3.64614727e-11       1.76052926e-09 
       5.08445888e-09       1.33753814e-10       6.99346915e-09 
       4.88827262e-09       1.33753800e-10       6.98599674e-09 
      -5.08546680e-09       1.41226197e-10       6.98599638e-09 
      -4.88928051e-09       1.41226225e-10       6.99346880e-09 
       5.08445888e-09       1.33753814e-10       6.99346915e-09 
       4.88827262e-09       1.33753800e-10       6.98599674e-09 
      -5.08546680e-09       1.41226197e-10       6.98599638e-09 
      -4.88928051e-09       1.41226225e-10       6.99346880e-09 
       7.55269763e-09       3.01760519e-10       1.56314513e-08 
       7.26127292e-09       3.01760492e-10       1.56202427e-08 
      -7.55421120e-09       3.12969095e-10       1.56202419e-08 
      -7.26278648e-09       3.12969109e-10       1.56314505e-08 
       7.55269763e-09       3.01760519e-10       1.56314513e-08 
       7.26127292e-09       3.01760492e-10       1.56202427e-08 
      -7.55421120e-09       3.12969095e-10       1.56202419e-08 
      -7.26278648e-09       3.12969109e-10       1.56314505e-08 
       9.97160921e-09       5.35420167e-10       2.76071078e-08 
       9.58684915e-09       5.35420153e-10       2.75921629e-08 
      -9.97362953e-09       5.50364976e-10       2.75921616e-08 
      -9.58886948e-09       5.50364990e-10       2.76071064e-08 
       9.97160921e-09       5.35420167e-10       2.76071078e-08 
       9.58684915e-09       5.35420153e-10       2.75921629e-08 
      -9.97362953e-09       5.50364976e-10       2.75921616e-08 
      -9.58886948e-09       5.50364990e-10       2.76071064e-08 
       1.23411937e-08       8.33407690e-10       4.28530705e-08 
       1.18650013e-08       8.33407676e-10       4.28343894e-08 
      -1.23437219e-08       8.52088691e-10       4.28343873e-08 
      -1.18675296e-08       8.52088705e-10       4.28530684e-08 
       1.23411937e-08       8.33407690e-10       4.28530705e-08 
       1.18650013e-08       8.33407676e-10       4.28343894e-08 
      -1.23437219e-08       8.52088691e-10       4.28343873e-08 
      -1.18675296e-08       8.52088705e-10       4.28530684e-08 
       1.46614512e-08       1.19439793e-09       6.13019713e-08 
       1.40957296e-08       1.19439791e-09       6.12795540e-08 
      -1.46644883e-08       1.21681511e-09       6.12795511e-08 
      -1.40987667e-08       1.21681512e-09       6.13019684e-08 
       1.46614512e-08       1.19439793e-09       6.13019713e-08 
       1.40957296e-08       1.19439791e-09       6.12795540e-08 
      -1.46644883e-08       1.21681511e-09       6.12795511e-08 
      -1.40987667e-08       1.21681512e-09       6.13019684e-08 
       1.69323814e-08       1.61706569e-09       8.28864422e-08 
       1.62790338e-08       1.61706568e-09       8.28602886e-08 
      -1.69359287e-08       1.64321906e-09       8.28602848e-08 
      -1.62825811e-08       1.64321907e-09       8.28864383e-08 
       1.69323814e-08       1.61706569e-09       8.28864422e-08 
       1.62790338e-08       1.61706568e-09       8.28602886e-08 
      -1.69359287e-08       1.64321906e-09       8.28602848e-08 
      -1.62825811e-08       1.64321907e-09       8.28864383e-08 
       1.91539848e-08       2.10008587e-09       1.07539115e-07 
       1.84149143e-08       2.10008584e-09       1.07509225e-07 
      -1.91580428e-08       2.12997539e-09       1.07509220e-07 
      -1.84189722e-08       2.12997540e-09       1.07539110e-07 
       1.91539848e-08       2.10008587e-09       1.07539115e-07 
       1.84149143e-08       2.10008584e-09       1.07509225e-07 
      -1.91580428e-08       2.12997539e-09       1.07509220e-07 
      -1.84189722e-08       2.12997540e-09       1.07539110e-07 
       2.13262609e-08       2.64213326e-09       1.35192622e-07 
       2.05033704e-08       2.64213325e-09       1.35158996e-07 
      -2.13308311e-08       2.67575898e-09       1.35158990e-07 
      -2.05079407e-08       2.67575900e-09       1.35192616e-07 
       2.13262609e-08       2.64213326e-09       1.35192622e-07 
       2.05033704e-08       2.64213325e-09       1.35158996e-07 
      -2.13308311e-08       2.67575898e-09       1.35158990e-07 
      -2.05079407e-08       2.67575900e-09       1.35192616e-07 
       2.34492101e-08       3.24188276e-09       1.65779595e-07 
       2.25444030e-08       3.24188275e-09       1.65742232e-07 
      -2.34542932e-08       3.27924467e-09       1.65742225e-07 
      -2.25494859e-08       3.27924470e-09       1.65779587e-07 
       2.34492101e-08       3.24188275e-09       1.65779595e-07 
       2.25444028e-08       3.24188278e-09       1.65742232e-07 
      -2.34542932e-08       3.27924470e-09       1.65742225e-07 
      -2.25494859e-08       3.27924467e-09       1.65779587e-07 
       2.55255184e-08       3.89822913e-09       1.99233650e-07 
       2.45405971e-08       3.89822916e-09       1.99192945e-07 
      -2.55309356e-08       3.93893393e-09       1.99192936e-07 
      -2.45460143e-08       3.93893389e-09       1.99233641e-07 
       2.55255184e-08       3.89822913e-09       1.99233650e-07 
       2.45405971e-08       3.89822916e-09       1.99192945e-07 
      -2.55309356e-08       3.93893393e-09       1.99192936e-07 
      -2.45460143e-08       3.93893389e-09       1.99233641e-07 
       2.75576910e-08       4.60976676e-09       2.35493527e-07 
       2.64943589e-08       4.60976679e-09       2.35449479e-07 
      -2.75634444e-08       4.65381443e-09       2.35449469e-07 
      -2.65001123e-08       4.65381440e-09       2.35493517e-07 
       2.75576910e-08       4.60976676e-09       2.35493527e-07 
       2.64943589e-08       4.60976679e-09       2.35449479e-07 
      -2.75634444e-08       4.65381443e-09       2.35449469e-07 
      -2.65001123e-08       4.65381440e-09       2.35493517e-07 
       2.95457283e-08       5.37531006e-09       2.74498948e-07 
       2.84056878e-08       5.37531009e-09       2.74451557e-07 
      -2.95518208e-08       5.42270058e-09       2.74451545e-07 
      -2.84117803e-08       5.42270054e-09       2.74498936e-07 
       2.95457283e-08       5.37531006e-09       2.74498948e-07 
       2.84056878e-08       5.37531009e-09       2.74451557e-07 
      -2.95518208e-08       5.42270058e-09       2.74451545e-07 
      -2.84117803e-08       5.42270054e-09       2.74498936e-07 
       3.14896300e-08       6.19367331e-09       3.16189637e-07 
       3.02745840e-08       6.19367334e-09       3.16138903e-07 
      -3.14960635e-08       6.24440667e-09       3.16138890e-07 
      -3.02810177e-08       6.24440664e-09       3.16189624e-07 
       3.14896300e-08       6.19367331e-09       3.16189637e-07 
       3.02745840e-08       6.19367334e-09       3.16138903e-07 
      -3.14960635e-08       6.24440667e-09       3.16138890e-07 
      -3.02810177e-08       6.24440664e-09       3.16189624e-07 
       3.33893959e-08       7.06367088e-09       3.60505317e-07 
       3.21010472e-08       7.06367091e-09       3.60451240e-07 
      -3.33961736e-08       7.11774710e-09       3.60451225e-07 
      -3.21078248e-08       7.11774707e-09       3.60505302e-07 
       3.33893959e-08       7.06367088e-09       3.60505317e-07 
       3.21010472e-08       7.06367091e-09       3.60451240e-07 
      -3.33961736e-08       7.11774710e-09       3.60451225e-07 
      -3.21078248e-08       7.11774707e-09       3.60505302e-07 
       3.52450265e-08       7.98411712e-09       4.07385711e-07 
       3.38850779e-08       7.98411715e-09       4.07328291e-07 
      -3.52521505e-08       8.04153619e-09       4.07328274e-07 
      -3.38922019e-08       8.04153615e-09       4.07385694e-07 
       3.52450265e-08       7.98411712e-09       4.07385711e-07 
       3.38850779e-08       7.98411715e-09       4.07328291e-07 
      -3.52521505e-08       8.04153619e-09       4.07328274e-07 
      -3.38922019e-08       8.04153615e-09       4.07385694e-07 
       3.70565219e-08       8.95382632e-09       4.56770542e-07 
       3.56266761e-08       8.95382635e-09       4.56709780e-07 
      -3.70639941e-08       9.01458823e-09       4.56709761e-07 
      -3.56341483e-08       9.01458820e-09       4.56770524e-07 
       3.70565219e-08       8.95382632e-09       4.56770542e-07 
       3.56266761e-08       8.95382635e-09       4.56709780e-07 
      -3.70639941e-08       9.01458823e-09       4.56709761e-07 
      -3.56341483e-08       9.01458820e-09       4.56770524e-07 
       3.88238817e-08       9.97161287e-09       5.08599535e-07 
       3.73258413e-08       9.97161290e-09       5.08535429e-07 
      -3.88317045e-08       1.00357176e-08       5.08535409e-07 
      -3.73336644e-08       1.00357176e-08       5.08599515e-07 
       3.88238817e-08       9.97161287e-09       5.08599535e-07 
       3.73258413e-08       9.97161290e-09       5.08535429e-07 
      -3.88317045e-08       1.00357176e-08       5.08535409e-07 
      -3.73336644e-08       1.00357176e-08       5.08599515e-07 
       4.05471063e-08       1.10362911e-08       5.62812411e-07 
       3.89825745e-08       1.10362911e-08       5.62744963e-07 
      -4.05552818e-08       1.11037387e-08       5.62744941e-07 
      -3.89907497e-08       1.11037387e-08       5.62812389e-07 
       4.05471063e-08       1.10362911e-08       5.62812411e-07 
       3.89825745e-08       1.10362911e-08       5.62744963e-07 
      -4.05552818e-08       1.11037387e-08       5.62744941e-07 
      -3.89907497e-08       1.11037387e-08       5.62812389e-07 
       4.22261950e-08       1.21466753e-08       6.19348896e-07 
       4.05968743e-08       1.21466754e-08       6.19278104e-07 
      -4.22347259e-08       1.22174658e-08       6.19278080e-07 
      -4.06054050e-08       1.22174658e-08       6.19348872e-07 
       4.22261954e-08       1.21466754e-08       6.19348896e-07 
       4.05968743e-08       1.21466754e-08       6.19278104e-07 
      -4.22347259e-08       1.22174658e-08       6.19278080e-07 
      -4.06054050e-08       1.22174658e-08       6.19348872e-07 
       4.38638086e-08       1.33017998e-08       6.78149696e-07 
       4.21713016e-08       1.33017998e-08       6.78075955e-07 
      -4.38725696e-08       1.33755398e-08       6.78075929e-07 
      -4.21800626e-08       1.33755398e-08       6.78149670e-07 
       4.38638086e-08       1.33017998e-08       6.78149696e-07 
       4.21713016e-08       1.33017998e-08       6.78075955e-07 
      -4.38725696e-08       1.33755398e-08       6.78075929e-07 
      -4.21800626e-08       1.33755398e-08       6.78149670e-07 
       4.54624782e-08       1.45003985e-08       7.39160642e-07 
       4.37082872e-08       1.45003985e-08       7.39083951e-07 
      -4.54714728e-08       1.45770880e-08       7.39083923e-07 
      -4.37172818e-08       1.45770880e-08       7.39160614e-07 
       4.54624782e-08       1.45003985e-08       7.39160642e-07 
       4.37082872e-08       1.45003985e-08       7.39083951e-07 
      -4.54714728e-08       1.45770880e-08       7.39083923e-07 
      -4.37172818e-08       1.45770880e-08       7.39160614e-07 
       4.70222048e-08       1.57414252e-08       8.02328548e-07 
       4.52078326e-08       1.57414252e-08       8.02248907e-07 
      -4.70314347e-08       1.58210642e-08       8.02248878e-07 
      -4.52170625e-08       1.58210642e-08       8.02328518e-07 
       4.70222048e-08       1.57414252e-08       8.02328548e-07 
       4.52078326e-08       1.57414252e-08       8.02248907e-07 
      -4.70314347e-08       1.58210642e-08       8.02248878e-07 
      -4.52170625e-08       1.58210642e-08       8.02328518e-07 
       4.85429874e-08       1.70238337e-08       8.67600228e-07 
       4.66699364e-08       1.70238337e-08       8.67517638e-07 
      -4.85524567e-08       1.71064223e-08       8.67517607e-07 
      -4.66794057e-08       1.71064223e-08       8.67600197e-07 
       4.85429874e-08       1.70238337e-08       8.67600228e-07 
       4.66699364e-08       1.70238337e-08       8.67517638e-07 
      -4.85524567e-08       1.71064223e-08       8.67517607e-07 
      -4.66794057e-08       1.71064223e-08       8.67600197e-07 
       5.00248265e-08       1.83465780e-08       9.34922498e-07 
       4.80945990e-08       1.83465780e-08       9.34836959e-07 
      -5.00345383e-08       1.84321161e-08       9.34836925e-07 
      -4.81043108e-08       1.84321161e-08       9.34922465e-07 
       5.00248265e-08       1.83465780e-08       9.34922498e-07 
       4.80945990e-08       1.83465780e-08       9.34836959e-07 
      -5.00345383e-08       1.84321161e-08       9.34836925e-07 
      -4.81043108e-08       1.84321161e-08       9.34922465e-07 
       5.14677225e-08       1.97086117e-08       1.00424217e-06 
       4.94818209e-08       1.97086117e-08       1.00415368e-06 
      -5.14776790e-08       1.97970993e-08       1.00415365e-06 
      -4.94917773e-08       1.97970993e-08       1.00424214e-06 
       5.14677225e-08       1.97086117e-08       1.00424217e-06 
       4.94818209e-08       1.97086117e-08       1.00415368e-06 
      -5.14776790e-08       1.97970993e-08       1.00415365e-06 
      -4.94917773e-08       1.97970993e-08       1.00424214e-06 
       5.28716750e-08       2.11088887e-08       1.07550607e-06 
       5.08316020e-08       2.11088887e-08       1.07541463e-06 
      -5.28818789e-08       2.12003259e-08       1.07541459e-06 
      -5.08418059e-08       2.12003259e-08       1.07550603e-06 
       5.28716750e-08       2.11088887e-08       1.07550607e-06 
       5.08316020e-08       2.11088887e-08       1.07541463e-06 
      -5.28818789e-08       2.12003259e-08       1.07541459e-06 
      -5.08418059e-08       2.12003259e-08       1.07550603e-06 
       5.42366845e-08       2.25463629e-08       1.14866099e-06 
       5.21439425e-08       2.25463629e-08       1.14856660e-06 
      -5.42471379e-08       2.26407497e-08       1.14856657e-06 
      -5.21543955e-08       2.26407497e-08       1.14866095e-06 
       5.42366845e-08       2.25463629e-08       1.14866099e-06 
       5.21439425e-08       2.25463629e-08       1.14856660e-06 
      -5.42471379e-08       2.26407497e-08       1.14856657e-06 
      -5.21543955e-08       2.26407497e-08       1.14866095e-06 
       5.55627504e-08       2.40199881e-08       1.22365377e-06 
       5.34188414e-08       2.40199881e-08       1.22355643e-06 
      -5.55734565e-08       2.41173244e-08       1.22355639e-06 
      -5.34295475e-08       2.41173244e-08       1.22365373e-06 
       5.55627504e-08       2.40199881e-08       1.22365377e-06 
       5.34188414e-08       2.40199881e-08       1.22355643e-06 
      -5.55734565e-08       2.41173244e-08       1.22355639e-06 
      -5.34295475e-08       2.41173244e-08       1.22365373e-06 
       5.68498733e-08       2.55287181e-08       1.30043121e-06 
       5.46562999e-08       2.55287181e-08       1.30033092e-06 
      -5.68608343e-08       2.56290039e-08       1.30033088e-06 
      -5.46672609e-08       2.56290039e-08       1.30043116e-06 
       5.68498733e-08       2.55287181e-08       1.30043121e-06 
       5.46562999e-08       2.55287181e-08       1.30033092e-06 
      -5.68608343e-08       2.56290039e-08       1.30033088e-06 
      -5.46672609e-08       2.56290039e-08       1.30043116e-06 
       5.81006914e-08       2.70717267e-08       1.37894111e-06 
       5.58588562e-08       2.70717267e-08       1.37883826e-06 
      -5.81118247e-08       2.71745687e-08       1.37883822e-06 
      -5.58699895e-08       2.71745687e-08       1.37894106e-06 
       5.81006914e-08       2.70717267e-08       1.37894111e-06 
       5.58588562e-08       2.70717267e-08       1.37883826e-06 
      -5.81118247e-08       2.71745687e-08       1.37883822e-06 
      -5.58699895e-08       2.71745687e-08       1.37894106e-06 
       5.93177583e-08       2.86478872e-08       1.45913639e-06 
       5.70289633e-08       2.86478872e-08       1.45903099e-06 
      -5.93290670e-08       2.87532855e-08       1.45903094e-06 
      -5.70402716e-08       2.87532855e-08       1.45913634e-06 
       5.93177583e-08       2.86478872e-08       1.45913639e-06 
       5.70289633e-08       2.86478872e-08       1.45903099e-06 
      -5.93290670e-08       2.87532855e-08       1.45903094e-06 
      -5.70402716e-08       2.87532855e-08       1.45913634e-06 
       6.05010744e-08       3.02562930e-08       1.54097097e-06 
       5.81666217e-08       3.02562930e-08       1.54086301e-06 
      -6.05125603e-08       3.03642476e-08       1.54086296e-06 
      -5.81781077e-08       3.03642476e-08       1.54097092e-06 
       6.05010744e-08       3.02562930e-08       1.54097097e-06 
       5.81666217e-08       3.02562930e-08       1.54086301e-06 
      -6.05125603e-08       3.03642476e-08       1.54086296e-06 
      -5.81781077e-08       3.03642476e-08       1.54097092e-06 
       6.16506393e-08       3.18960375e-08       1.62439874e-06 
       5.92718306e-08       3.18960375e-08       1.62428822e-06 
      -6.16623059e-08       3.20065483e-08       1.62428817e-06 
      -5.92834972e-08       3.20065483e-08       1.62439868e-06 
       6.16506393e-08       3.18960375e-08       1.62439874e-06 
       5.92718306e-08       3.18960375e-08       1.62428822e-06 
      -6.16623059e-08       3.20065483e-08       1.62428817e-06 
      -5.92834972e-08       3.20065483e-08       1.62439868e-06 
       6.27664529e-08       3.35662138e-08       1.70937361e-06 
       6.03445907e-08       3.35662138e-08       1.70926054e-06 
      -6.27783026e-08       3.36792809e-08       1.70926049e-06 
      -6.03564407e-08       3.36792809e-08       1.70937355e-06 
       6.27664529e-08       3.35662138e-08       1.70937361e-06 
       6.03445907e-08       3.35662138e-08       1.70926054e-06 
      -6.27783026e-08       3.36792809e-08       1.70926049e-06 
      -6.03564407e-08       3.36792809e-08       1.70937355e-06 
       6.38485154e-08       3.52659155e-08       1.79584949e-06 
       6.13849021e-08       3.52659155e-08       1.79573386e-06 
      -6.38605515e-08       3.53815388e-08       1.79573381e-06 
      -6.13969382e-08       3.53815388e-08       1.79584943e-06 
       6.38485154e-08       3.52659155e-08       1.79584949e-06 
       6.13849021e-08       3.52659155e-08       1.79573386e-06 
      -6.38605515e-08       3.53815388e-08       1.79573381e-06 
      -6.13969382e-08       3.53815388e-08       1.79584943e-06 
       6.48968266e-08       3.69942356e-08       1.88378028e-06 
       6.23927643e-08       3.69942356e-08       1.88366210e-06 
      -6.49090515e-08       3.71124152e-08       1.88366204e-06 
      -6.24049887e-08       3.71124152e-08       1.88378022e-06 
       6.48968266e-08       3.69942356e-08       1.88378028e-06 
       6.23927643e-08       3.69942356e-08       1.88366210e-06 
      -6.49090515e-08       3.71124152e-08       1.88366204e-06 
      -6.24049887e-08       3.71124152e-08       1.88378022e-06 
       6.59113879e-08       3.87502677e-08       1.97311989e-06 
       6.33681783e-08       3.87502677e-08       1.97299916e-06 
      -6.59238024e-08       3.88710035e-08       1.97299910e-06 
      -6.33805932e-08       3.88710035e-08       1.97311984e-06 
       6.59113879e-08       3.87502677e-08       1.97311989e-06 
       6.33681783e-08       3.87502677e-08       1.97299916e-06 