# vtk DataFile Version 2.0
./output/onsasExample_nonLinearCantileverBlade_staitc3D_pitch numElements=10/onsasExample_nonLinearCantileverBlade_staitc3D_pitch numElements=10_0017.vtk
ASCII
DATASET UNSTRUCTURED_GRID

POINTS 800 float
       6.031641e-24      -7.180703e-02      -7.180703e-02 
       4.633383e-24       7.180703e-02      -7.180703e-02 
      -6.031641e-24       7.180703e-02       7.180703e-02 
      -4.633383e-24      -7.180703e-02       7.180703e-02 
       1.000000e-01      -7.180703e-02      -7.180703e-02 
       1.000000e-01       7.180703e-02      -7.180703e-02 
       1.000000e-01       7.180703e-02       7.180704e-02 
       1.000000e-01      -7.180703e-02       7.180704e-02 
       1.000000e-01      -7.180703e-02      -7.180703e-02 
       1.000000e-01       7.180703e-02      -7.180703e-02 
       1.000000e-01       7.180703e-02       7.180704e-02 
       1.000000e-01      -7.180703e-02       7.180704e-02 
       2.000000e-01      -7.180703e-02      -7.180702e-02 
       2.000000e-01       7.180703e-02      -7.180702e-02 
       2.000000e-01       7.180703e-02       7.180704e-02 
       2.000000e-01      -7.180703e-02       7.180704e-02 
       2.000000e-01      -7.180703e-02      -7.180702e-02 
       2.000000e-01       7.180703e-02      -7.180702e-02 
       2.000000e-01       7.180703e-02       7.180704e-02 
       2.000000e-01      -7.180703e-02       7.180704e-02 
       3.000000e-01      -7.180703e-02      -7.180701e-02 
       3.000000e-01       7.180703e-02      -7.180701e-02 
       3.000000e-01       7.180703e-02       7.180706e-02 
       3.000000e-01      -7.180703e-02       7.180706e-02 
       3.000000e-01      -7.180703e-02      -7.180701e-02 
       3.000000e-01       7.180703e-02      -7.180701e-02 
       3.000000e-01       7.180703e-02       7.180706e-02 
       3.000000e-01      -7.180703e-02       7.180706e-02 
       4.000000e-01      -7.180703e-02      -7.180699e-02 
       4.000000e-01       7.180703e-02      -7.180699e-02 
       4.000000e-01       7.180704e-02       7.180708e-02 
       4.000000e-01      -7.180703e-02       7.180708e-02 
       4.000000e-01      -7.180703e-02      -7.180699e-02 
       4.000000e-01       7.180703e-02      -7.180699e-02 
       4.000000e-01       7.180704e-02       7.180708e-02 
       4.000000e-01      -7.180703e-02       7.180708e-02 
       5.000000e-01      -7.180703e-02      -7.180697e-02 
       5.000000e-01       7.180704e-02      -7.180697e-02 
       5.000000e-01       7.180704e-02       7.180710e-02 
       5.000000e-01      -7.180703e-02       7.180710e-02 
       5.000000e-01      -7.180703e-02      -7.180697e-02 
       5.000000e-01       7.180704e-02      -7.180697e-02 
       5.000000e-01       7.180704e-02       7.180710e-02 
       5.000000e-01      -7.180703e-02       7.180710e-02 
       6.000000e-01      -7.180703e-02      -7.180694e-02 
       6.000000e-01       7.180704e-02      -7.180694e-02 
       6.000000e-01       7.180704e-02       7.180713e-02 
       6.000000e-01      -7.180703e-02       7.180713e-02 
       6.000000e-01      -7.180703e-02      -7.180694e-02 
       6.000000e-01       7.180704e-02      -7.180694e-02 
       6.000000e-01       7.180704e-02       7.180713e-02 
       6.000000e-01      -7.180703e-02       7.180713e-02 
       7.000000e-01      -7.180703e-02      -7.180691e-02 
       7.000000e-01       7.180704e-02      -7.180691e-02 
       7.000000e-01       7.180704e-02       7.180716e-02 
       7.000000e-01      -7.180703e-02       7.180716e-02 
       7.000000e-01      -7.180703e-02      -7.180691e-02 
       7.000000e-01       7.180704e-02      -7.180691e-02 
       7.000000e-01       7.180704e-02       7.180716e-02 
       7.000000e-01      -7.180703e-02       7.180716e-02 
       8.000000e-01      -7.180703e-02      -7.180687e-02 
       8.000000e-01       7.180704e-02      -7.180687e-02 
       8.000000e-01       7.180704e-02       7.180720e-02 
       8.000000e-01      -7.180703e-02       7.180720e-02 
       8.000000e-01      -7.180703e-02      -7.180687e-02 
       8.000000e-01       7.180704e-02      -7.180687e-02 
       8.000000e-01       7.180704e-02       7.180720e-02 
       8.000000e-01      -7.180703e-02       7.180720e-02 
       9.000000e-01      -7.180702e-02      -7.180682e-02 
       9.000000e-01       7.180704e-02      -7.180683e-02 
       9.000000e-01       7.180704e-02       7.180724e-02 
       9.000000e-01      -7.180702e-02       7.180724e-02 
       9.000000e-01      -7.180702e-02      -7.180682e-02 
       9.000000e-01       7.180704e-02      -7.180683e-02 
       9.000000e-01       7.180704e-02       7.180724e-02 
       9.000000e-01      -7.180702e-02       7.180724e-02 
       1.000000e+00      -7.180702e-02      -7.180678e-02 
       1.000000e+00       7.180704e-02      -7.180678e-02 
       1.000000e+00       7.180704e-02       7.180729e-02 
       1.000000e+00      -7.180702e-02       7.180729e-02 
       1.000000e+00      -7.180702e-02      -7.180678e-02 
       1.000000e+00       7.180704e-02      -7.180678e-02 
       1.000000e+00       7.180704e-02       7.180729e-02 
       1.000000e+00      -7.180702e-02       7.180729e-02 
       1.100000e+00      -7.180702e-02      -7.180673e-02 
       1.100000e+00       7.180705e-02      -7.180673e-02 
       1.100000e+00       7.180705e-02       7.180734e-02 
       1.100000e+00      -7.180702e-02       7.180734e-02 
       1.100000e+00      -7.180702e-02      -7.180673e-02 
       1.100000e+00       7.180705e-02      -7.180673e-02 
       1.100000e+00       7.180705e-02       7.180734e-02 
       1.100000e+00      -7.180702e-02       7.180734e-02 
       1.200000e+00      -7.180702e-02      -7.180667e-02 
       1.200000e+00       7.180705e-02      -7.180667e-02 
       1.200000e+00       7.180705e-02       7.180740e-02 
       1.200000e+00      -7.180702e-02       7.180740e-02 
       1.200000e+00      -7.180702e-02      -7.180667e-02 
       1.200000e+00       7.180705e-02      -7.180667e-02 
       1.200000e+00       7.180705e-02       7.180740e-02 
       1.200000e+00      -7.180702e-02       7.180740e-02 
       1.300000e+00      -7.180701e-02      -7.180661e-02 
       1.300000e+00       7.180705e-02      -7.180661e-02 
       1.300000e+00       7.180705e-02       7.180746e-02 
       1.300000e+00      -7.180701e-02       7.180746e-02 
       1.300000e+00      -7.180701e-02      -7.180661e-02 
       1.300000e+00       7.180705e-02      -7.180661e-02 
       1.300000e+00       7.180705e-02       7.180746e-02 
       1.300000e+00      -7.180701e-02       7.180746e-02 
       1.400000e+00      -7.180701e-02      -7.180655e-02 
       1.400000e+00       7.180705e-02      -7.180655e-02 
       1.400000e+00       7.180705e-02       7.180752e-02 
       1.400000e+00      -7.180701e-02       7.180752e-02 
       1.400000e+00      -7.180701e-02      -7.180655e-02 
       1.400000e+00       7.180705e-02      -7.180655e-02 
       1.400000e+00       7.180705e-02       7.180752e-02 
       1.400000e+00      -7.180701e-02       7.180752e-02 
       1.500000e+00      -7.180701e-02      -7.180648e-02 
       1.500000e+00       7.180706e-02      -7.180648e-02 
       1.500000e+00       7.180706e-02       7.180759e-02 
       1.500000e+00      -7.180701e-02       7.180759e-02 
       1.500000e+00      -7.180701e-02      -7.180648e-02 
       1.500000e+00       7.180706e-02      -7.180648e-02 
       1.500000e+00       7.180706e-02       7.180759e-02 
       1.500000e+00      -7.180701e-02       7.180759e-02 
       1.600000e+00      -7.180701e-02      -7.180641e-02 
       1.600000e+00       7.180706e-02      -7.180641e-02 
       1.600000e+00       7.180706e-02       7.180766e-02 
       1.600000e+00      -7.180701e-02       7.180766e-02 
       1.600000e+00      -7.180701e-02      -7.180641e-02 
       1.600000e+00       7.180706e-02      -7.180641e-02 
       1.600000e+00       7.180706e-02       7.180766e-02 
       1.600000e+00      -7.180701e-02       7.180766e-02 
       1.700000e+00      -7.180700e-02      -7.180633e-02 
       1.700000e+00       7.180706e-02      -7.180633e-02 
       1.700000e+00       7.180706e-02       7.180774e-02 
       1.700000e+00      -7.180700e-02       7.180774e-02 
       1.700000e+00      -7.180700e-02      -7.180633e-02 
       1.700000e+00       7.180706e-02      -7.180633e-02 
       1.700000e+00       7.180706e-02       7.180774e-02 
       1.700000e+00      -7.180700e-02       7.180774e-02 
       1.800000e+00      -7.180700e-02      -7.180625e-02 
       1.800000e+00       7.180707e-02      -7.180625e-02 
       1.800000e+00       7.180707e-02       7.180782e-02 
       1.800000e+00      -7.180700e-02       7.180782e-02 
       1.800000e+00      -7.180700e-02      -7.180625e-02 
       1.800000e+00       7.180707e-02      -7.180625e-02 
       1.800000e+00       7.180707e-02       7.180782e-02 
       1.800000e+00      -7.180700e-02       7.180782e-02 
       1.900000e+00      -7.180699e-02      -7.180617e-02 
       1.900000e+00       7.180707e-02      -7.180617e-02 
       1.900000e+00       7.180707e-02       7.180790e-02 
       1.900000e+00      -7.180699e-02       7.180790e-02 
       1.900000e+00      -7.180699e-02      -7.180617e-02 
       1.900000e+00       7.180707e-02      -7.180617e-02 
       1.900000e+00       7.180707e-02       7.180790e-02 
       1.900000e+00      -7.180699e-02       7.180790e-02 
       2.000000e+00      -7.180699e-02      -7.180608e-02 
       2.000000e+00       7.180708e-02      -7.180608e-02 
       2.000000e+00       7.180708e-02       7.180799e-02 
       2.000000e+00      -7.180699e-02       7.180799e-02 
       2.000000e+00      -7.180699e-02      -7.180608e-02 
       2.000000e+00       7.180708e-02      -7.180608e-02 
       2.000000e+00       7.180708e-02       7.180799e-02 
       2.000000e+00      -7.180699e-02       7.180799e-02 
       2.100000e+00      -7.180699e-02      -7.180599e-02 
[...]
POINT_DATA       800 
VECTORS Displacements float
       6.03164054e-24       0.00000000e+00      -1.38777878e-17 
       4.63338265e-24       0.00000000e+00      -1.38777878e-17 
      -6.03164054e-24       0.00000000e+00       1.38777878e-17 
      -4.63338265e-24       0.00000000e+00       1.38777878e-17 
       4.04822394e-09       1.06907816e-10       2.72136906e-09 
       3.70401920e-09       1.06907830e-10       2.69474376e-09 
      -4.04945048e-09       1.33533101e-10       2.69474358e-09 
      -3.70524574e-09       1.33533087e-10       2.72136888e-09 
       4.04822394e-09       1.06907816e-10       2.72136906e-09 
       3.70401920e-09       1.06907830e-10       2.69474376e-09 
      -4.04945048e-09       1.33533101e-10       2.69474358e-09 
      -3.70524574e-09       1.33533087e-10       2.72136888e-09 
       8.01864988e-09       4.51186449e-10       1.07896937e-08 
       7.33685415e-09       4.51186463e-10       1.07364430e-08 
      -8.02110567e-09       5.04437020e-10       1.07364422e-08 
      -7.33930997e-09       5.04437006e-10       1.07896929e-08 
       8.01864988e-09       4.51186449e-10       1.07896937e-08 
       7.33685415e-09       4.51186463e-10       1.07364430e-08 
      -8.02110567e-09       5.04437020e-10       1.07364422e-08 
      -7.33930997e-09       5.04437006e-10       1.07896929e-08 
       1.19112779e-08       1.02823068e-09       2.41012378e-08 
       1.08985050e-08       1.02823070e-09       2.40213618e-08 
      -1.19149656e-08       1.10810650e-09       2.40213600e-08 
      -1.09021927e-08       1.10810650e-09       2.41012360e-08 
       1.19112779e-08       1.02823068e-09       2.41012378e-08 
       1.08985050e-08       1.02823070e-09       2.40213618e-08 
      -1.19149656e-08       1.10810650e-09       2.40213600e-08 
      -1.09021927e-08       1.10810650e-09       2.41012360e-08 
       1.57261078e-08       1.83343528e-09       4.25522653e-08 
       1.43889714e-08       1.83343528e-09       4.24457639e-08 
      -1.57310301e-08       1.93993634e-09       4.24457608e-08 
      -1.43938937e-08       1.93993632e-09       4.25522622e-08 
       1.57261078e-08       1.83343528e-09       4.25522653e-08 
       1.43889714e-08       1.83343528e-09       4.24457639e-08 
      -1.57310301e-08       1.93993634e-09       4.24457608e-08 
      -1.43938937e-08       1.93993632e-09       4.25522622e-08 
       1.94631399e-08       2.86219504e-09       6.60390402e-08 
       1.78082538e-08       2.86219504e-09       6.59059135e-08 
      -1.94692995e-08       2.99532131e-09       6.59059087e-08 
      -1.78144132e-08       2.99532131e-09       6.60390354e-08 
       1.94631399e-08       2.86219504e-09       6.60390402e-08 
       1.78082538e-08       2.86219504e-09       6.59059135e-08 
      -1.94692995e-08       2.99532131e-09       6.59059087e-08 
      -1.78144132e-08       2.99532131e-09       6.60390354e-08 
       2.31223741e-08       4.10990472e-09       9.44578264e-08 
       2.11563519e-08       4.10990472e-09       9.42980744e-08 
      -2.31297733e-08       4.26965621e-09       9.42980675e-08 
      -2.11637511e-08       4.26965621e-09       9.44578196e-08 
       2.31223741e-08       4.10990472e-09       9.44578264e-08 
       2.11563519e-08       4.10990472e-09       9.42980744e-08 
      -2.31297733e-08       4.26965621e-09       9.42980675e-08 
      -2.11637511e-08       4.26965621e-09       9.44578196e-08 
       2.67038104e-08       5.57195910e-09       1.27704888e-07 
       2.44332660e-08       5.57195910e-09       1.27518511e-07 
      -2.67124519e-08       5.75833579e-09       1.27518501e-07 
      -2.44419074e-08       5.75833581e-09       1.27704879e-07 
       2.67038104e-08       5.57195910e-09       1.27704888e-07 
       2.44332660e-08       5.57195910e-09       1.27518511e-07 
      -2.67124519e-08       5.75833579e-09       1.27518501e-07 
      -2.44419074e-08       5.75833581e-09       1.27704879e-07 
       3.02074490e-08       7.24375300e-09       1.65676489e-07 
       2.76389960e-08       7.24375299e-09       1.65463486e-07 
      -3.02173349e-08       7.45675487e-09       1.65463474e-07 
      -2.76488819e-08       7.45675487e-09       1.65676477e-07 
       3.02074490e-08       7.24375300e-09       1.65676489e-07 
       2.76389960e-08       7.24375299e-09       1.65463486e-07 
      -3.02173349e-08       7.45675487e-09       1.65463474e-07 
      -2.76488819e-08       7.45675487e-09       1.65676477e-07 
       3.36332896e-08       9.12068115e-09       2.08268893e-07 
       3.07735418e-08       9.12068114e-09       2.08029265e-07 
      -3.36444225e-08       9.36030818e-09       2.08029250e-07 
      -3.07846748e-08       9.36030820e-09       2.08268879e-07 
       3.36332896e-08       9.12068115e-09       2.08268893e-07 
       3.07735418e-08       9.12068114e-09       2.08029265e-07 
      -3.36444225e-08       9.36030818e-09       2.08029250e-07 
      -3.07846748e-08       9.36030820e-09       2.08268879e-07 
       3.69813324e-08       1.11981384e-08       2.55378364e-07 
       3.38369037e-08       1.11981383e-08       2.55112111e-07 
      -3.69937145e-08       1.14643905e-08       2.55112093e-07 
      -3.38492857e-08       1.14643906e-08       2.55378347e-07 
       3.69813324e-08       1.11981384e-08       2.55378364e-07 
       3.38369037e-08       1.11981384e-08       2.55112111e-07 
      -3.69937145e-08       1.14643906e-08       2.55112093e-07 
      -3.38492858e-08       1.14643906e-08       2.55378347e-07 
       4.02558913e-08       1.34730016e-08       3.06901585e-07 
       3.68330473e-08       1.34730016e-08       3.06611509e-07 
      -4.02690865e-08       1.37630761e-08       3.06611488e-07 
      -3.68462423e-08       1.37630761e-08       3.06901565e-07 
       4.02558913e-08       1.34730016e-08       3.06901585e-07 
       3.68330473e-08       1.34730016e-08       3.06611509e-07 
      -4.02690865e-08       1.37630761e-08       3.06611488e-07 
      -3.68462423e-08       1.37630761e-08       3.06901565e-07 
       4.34608398e-08       1.59396683e-08       3.62745321e-07 
       3.97654978e-08       1.59396683e-08       3.62431422e-07 
      -4.34748537e-08       1.62535650e-08       3.62431398e-07 
      -3.97795119e-08       1.62535651e-08       3.62745297e-07 
       4.34608398e-08       1.59396683e-08       3.62745321e-07 
       3.97654978e-08       1.59396683e-08       3.62431422e-07 
      -4.34748537e-08       1.62535650e-08       3.62431398e-07 
      -3.97795119e-08       1.62535651e-08       3.62745297e-07 
       4.65961778e-08       1.85940179e-08       4.22816755e-07 
       4.26342555e-08       1.85940179e-08       4.22479033e-07 
      -4.66110166e-08       1.89317369e-08       4.22479006e-07 
      -4.26490945e-08       1.89317369e-08       4.22816727e-07 
       4.65961778e-08       1.85940179e-08       4.22816755e-07 
       4.26342555e-08       1.85940179e-08       4.22479033e-07 
      -4.66110166e-08       1.89317369e-08       4.22479006e-07 
      -4.26490945e-08       1.89317369e-08       4.22816727e-07 
       4.96619053e-08       2.14319299e-08       4.87023071e-07 
       4.54393203e-08       2.14319299e-08       4.86661527e-07 
      -4.96775749e-08       2.17934712e-08       4.86661495e-07 
      -4.54549898e-08       2.17934712e-08       4.87023039e-07 
       4.96619053e-08       2.14319299e-08       4.87023071e-07 
       4.54393203e-08       2.14319299e-08       4.86661527e-07 
      -4.96775749e-08       2.17934712e-08       4.86661495e-07 
      -4.54549898e-08       2.17934712e-08       4.87023039e-07 
       5.26580224e-08       2.44492839e-08       5.55271452e-07 
       4.81806923e-08       2.44492839e-08       5.54886085e-07 
      -5.26745283e-08       2.48346474e-08       5.54886050e-07 
      -4.81971982e-08       2.48346475e-08       5.55271416e-07 
       5.26580224e-08       2.44492839e-08       5.55271452e-07 
       4.81806923e-08       2.44492839e-08       5.54886085e-07 
      -5.26745283e-08       2.48346474e-08       5.54886050e-07 
      -4.81971982e-08       2.48346475e-08       5.55271416e-07 
       5.55845290e-08       2.76419595e-08       6.27469082e-07 
       5.08583717e-08       2.76419594e-08       6.27059893e-07 
      -5.56018773e-08       2.80511452e-08       6.27059853e-07 
      -5.08757196e-08       2.80511453e-08       6.27469042e-07 
       5.55845290e-08       2.76419595e-08       6.27469082e-07 
       5.08583717e-08       2.76419594e-08       6.27059893e-07 
      -5.56018773e-08       2.80511452e-08       6.27059853e-07 
      -5.08757196e-08       2.80511453e-08       6.27469042e-07 
       5.84414259e-08       3.10058361e-08       7.03523144e-07 
       5.34723583e-08       3.10058361e-08       7.03090132e-07 
      -5.84596211e-08       3.14388441e-08       7.03090089e-07 
      -5.34905535e-08       3.14388442e-08       7.03523101e-07 
       5.84414259e-08       3.10058361e-08       7.03523144e-07 
       5.34723583e-08       3.10058361e-08       7.03090132e-07 
      -5.84596211e-08       3.14388441e-08       7.03090089e-07 
      -5.34905535e-08       3.14388442e-08       7.03523101e-07 
       6.12287125e-08       3.45367934e-08       7.83340823e-07 
       5.60226525e-08       3.45367933e-08       7.82883988e-07 
      -6.12477602e-08       3.49936236e-08       7.82883940e-07 
      -5.60417002e-08       3.49936237e-08       7.83340775e-07 
       6.12287125e-08       3.45367934e-08       7.83340823e-07 
       5.60226525e-08       3.45367933e-08       7.82883988e-07 
      -6.12477602e-08       3.49936236e-08       7.82883940e-07 
      -5.60417002e-08       3.49936237e-08       7.83340775e-07 
       6.39463891e-08       3.82307108e-08       8.66829301e-07 
       5.85092539e-08       3.82307107e-08       8.66348643e-07 
      -6.39662940e-08       3.87113632e-08       8.66348591e-07 
      -5.85291593e-08       3.87113633e-08       8.66829248e-07 
       6.39463891e-08       3.82307108e-08       8.66829301e-07 
       5.85092539e-08       3.82307107e-08       8.66348643e-07 
      -6.39662940e-08       3.87113632e-08       8.66348591e-07 
      -5.85291593e-08       3.87113633e-08       8.66829248e-07 
       6.65944553e-08       4.20834679e-08       9.53895762e-07 
       6.09321633e-08       4.20834678e-08       9.53391282e-07 
      -6.66152233e-08       4.25879426e-08       9.53391225e-07 
      -6.09529311e-08       4.25879426e-08       9.53895705e-07 
       6.65944553e-08       4.20834679e-08       9.53895762e-07 
       6.09321629e-08       4.20834678e-08       9.53391282e-07 
      -6.66152236e-08       4.25879425e-08       9.53391225e-07 
      -6.09529311e-08       4.25879426e-08       9.53895705e-07 
       6.91771604e-08       4.60924264e-08       1.04444781e-06 
       6.32952801e-08       4.60924263e-08       1.04392231e-06 
      -6.91984878e-08       4.66179205e-08       1.04392225e-06 
      -6.33166080e-08       4.66179206e-08       1.04444775e-06 
       6.91771604e-08       4.60924264e-08       1.04444781e-06 
       6.32952801e-08       4.60924263e-08       1.04392231e-06 
      -6.91984878e-08       4.66179205e-08       1.04392225e-06 
      -6.33166080e-08       4.66179206e-08       1.04444775e-06 
       7.16984436e-08       5.02524685e-08       1.13840312e-06 
       6.56021970e-08       5.02524684e-08       1.13785660e-06 
      -7.17203377e-08       5.07989820e-08       1.13785654e-06 
      -6.56240911e-08       5.07989821e-08       1.13840306e-06 
       7.16984436e-08       5.02524685e-08       1.13840312e-06 
       6.56021970e-08       5.02524684e-08       1.13785660e-06 
      -7.17203377e-08       5.07989820e-08       1.13785654e-06 
      -6.56240911e-08       5.07989821e-08       1.13840306e-06 
       7.41583053e-08       5.45599584e-08       1.23567981e-06 
       6.78529135e-08       5.45599583e-08       1.23511227e-06 
      -7.41807717e-08       5.51274914e-08       1.23511220e-06 
      -6.78753800e-08       5.51274915e-08       1.23567974e-06 
       7.41583053e-08       5.45599584e-08       1.23567981e-06 
       6.78529135e-08       5.45599583e-08       1.23511227e-06 
      -7.41807717e-08       5.51274914e-08       1.23511220e-06 
      -6.78753800e-08       5.51274915e-08       1.23567974e-06 
       7.65567449e-08       5.90112604e-08       1.33619598e-06 
       7.00474296e-08       5.90112603e-08       1.33560742e-06 
      -7.65797914e-08       5.95998128e-08       1.33560734e-06 
      -7.00704761e-08       5.95998129e-08       1.33619590e-06 
       7.65567449e-08       5.90112604e-08       1.33619598e-06 
       7.00474296e-08       5.90112603e-08       1.33560742e-06 
      -7.65797914e-08       5.95998128e-08       1.33560734e-06 
      -7.00704761e-08       5.95998129e-08       1.33619590e-06 
       7.88937626e-08       6.36027389e-08       1.43986972e-06 
       7.21857449e-08       6.36027388e-08       1.43926014e-06 
      -7.89173962e-08       6.42123108e-08       1.43926006e-06 
      -7.22093785e-08       6.42123109e-08       1.43986964e-06 
       7.88937626e-08       6.36027389e-08       1.43986972e-06 
       7.21857449e-08       6.36027388e-08       1.43926014e-06 
      -7.89173962e-08       6.42123108e-08       1.43926006e-06 
      -7.22093785e-08       6.42123109e-08       1.43986964e-06 
       8.11693588e-08       6.83307581e-08       1.54661915e-06 
       7.42678599e-08       6.83307580e-08       1.54598855e-06 
      -8.11935856e-08       6.89613494e-08       1.54598846e-06 
      -7.42920867e-08       6.89613496e-08       1.54661906e-06 
       8.11693588e-08       6.83307581e-08       1.54661915e-06 
       7.42678599e-08       6.83307580e-08       1.54598855e-06 
      -8.11935856e-08       6.89613494e-08       1.54598846e-06 
      -7.42920867e-08       6.89613496e-08       1.54661906e-06 
       8.33835334e-08       7.31916824e-08       1.65636236e-06 
       7.62937753e-08       7.31916823e-08       1.65571074e-06 
      -8.34083598e-08       7.38432931e-08       1.65571065e-06 
      -7.63186012e-08       7.38432933e-08       1.65636227e-06 
       8.33835334e-08       7.31916824e-08       1.65636236e-06 
       7.62937753e-08       7.31916823e-08       1.65571074e-06 
      -8.34083598e-08       7.38432931e-08       1.65571065e-06 
      -7.63186012e-08       7.38432933e-08       1.65636227e-06 
       8.55362874e-08       7.81818760e-08       1.76901746e-06 
       7.82634908e-08       7.81818758e-08       1.76834482e-06 
      -8.55617182e-08       7.88545062e-08       1.76834473e-06 
      -7.82889216e-08       7.88545063e-08       1.76901737e-06 
       8.55362874e-08       7.81818760e-08       1.76901746e-06 
       7.82634908e-08       7.81818758e-08       1.76834482e-06 
      -8.55617182e-08       7.88545062e-08       1.76834473e-06 
      -7.82889216e-08       7.88545063e-08       1.76901737e-06 
       8.76276189e-08       8.32977032e-08       1.88450255e-06 
       8.01770055e-08       8.32977031e-08       1.88380889e-06 
      -8.76536617e-08       8.39913528e-08       1.88380880e-06 
      -8.02030482e-08       8.39913530e-08       1.88450245e-06 
       8.76276189e-08       8.32977032e-08       1.88450255e-06 
       8.01770055e-08       8.32977031e-08       1.88380889e-06 
      -8.76536617e-08       8.39913528e-08       1.88380880e-06 
      -8.02030482e-08       8.39913530e-08       1.88450245e-06 
       8.96575294e-08       8.85355284e-08       2.00273574e-06 
       8.20343207e-08       8.85355282e-08       2.00202106e-06 
      -8.96841899e-08       8.92501975e-08       2.00202096e-06 
      -8.20609807e-08       8.92501976e-08       2.00273564e-06 
       8.96575294e-08       8.85355284e-08       2.00273574e-06 
       8.20343202e-08       8.85355282e-08       2.00202106e-06 
      -8.96841899e-08       8.92501974e-08       2.00202096e-06 
      -8.20609807e-08       8.92501976e-08       2.00273564e-06 
       9.16302167e-08       9.38931980e-08       2.12363554e-06 
       8.38392857e-08       9.38931978e-08       2.12290265e-06 
      -9.16572933e-08       9.46260837e-08       2.12290254e-06 
      -8.38663619e-08       9.46260839e-08       2.12363543e-06 
       9.16302167e-08       9.38931980e-08       2.12363554e-06 
       8.38392857e-08       9.38931978e-08       2.12290265e-06 
      -9.16572933e-08       9.46260837e-08       2.12290254e-06 
      -8.38663619e-08       9.46260839e-08       2.12363543e-06 
       9.35496716e-08       9.93660788e-08       2.24713057e-06 
       8.55955435e-08       9.93660786e-08       2.24637945e-06 
      -9.35771705e-08       1.00117181e-07       2.24637934e-06 
      -8.56230424e-08       1.00117182e-07       2.24713045e-06 
       9.35496716e-08       9.93660788e-08       2.24713057e-06 
       8.55955435e-08       9.93660786e-08       2.24637945e-06 
      -9.35771705e-08       1.00117181e-07       2.24637934e-06 
      -8.56230424e-08       1.00117182e-07       2.24713045e-06 
       9.54158943e-08       1.04951020e-07       2.37314983e-06 
       8.73030941e-08       1.04951020e-07       2.37238050e-06 
      -9.54438217e-08       1.05720339e-07       2.37238039e-06 
      -8.73310220e-08       1.05720339e-07       2.37314972e-06 
       9.54158943e-08       1.04951020e-07       2.37314983e-06 
       8.73030941e-08       1.04951020e-07       2.37238050e-06 
      -9.54438217e-08       1.05720339e-07       2.37238039e-06 
      -8.73310220e-08       1.05720339e-07       2.37314972e-06 
       9.72288836e-08       1.10644871e-07       2.50162237e-06 
       8.89619374e-08       1.10644870e-07       2.50083482e-06 
      -9.72572471e-08       1.11432407e-07       2.50083470e-06 
      -8.89903009e-08       1.11432407e-07       2.50162225e-06 
       9.72288836e-08       1.10644871e-07       2.50162237e-06 
       8.89619374e-08       1.10644870e-07       2.50083482e-06 
      -9.72572471e-08       1.11432407e-07       2.50083470e-06 
      -8.89903009e-08       1.11432407e-07       2.50162225e-06 
       9.89886408e-08       1.16444480e-07       2.63247719e-06 
       9.05720730e-08       1.16444480e-07       2.63167142e-06 
      -9.90174467e-08       1.17250233e-07       2.63167130e-06 
      -9.06008788e-08       1.17250233e-07       2.63247706e-06 
       9.89886408e-08       1.16444480e-07       2.63247719e-06 
       9.05720730e-08       1.16444480e-07       2.63167142e-06 
      -9.90174467e-08       1.17250233e-07       2.63167130e-06 
      -9.06008788e-08       1.17250233e-07       2.63247706e-06 
       1.00695166e-07       1.22346696e-07       2.76564332e-06 
       9.21335017e-08       1.22346696e-07       2.76481934e-06 
      -1.00724420e-07       1.23170666e-07       2.76481921e-06 
      -9.21627556e-08       1.23170666e-07       2.76564319e-06 
       1.00695166e-07       1.22346696e-07       2.76564332e-06 
       9.21335017e-08       1.22346696e-07       2.76481934e-06 
      -1.00724420e-07       1.23170666e-07       2.76481921e-06 
      -9.21627556e-08       1.23170666e-07       2.76564319e-06 
       1.02348459e-07       1.28348370e-07       2.90104979e-06 
       9.36462232e-08       1.28348369e-07       2.90020759e-06 
      -1.02378167e-07       1.29190556e-07       2.90020746e-06 
      -9.36759315e-08       1.29190556e-07       2.90104966e-06 
       1.02348459e-07       1.28348370e-07       2.90104979e-06 
       9.36462232e-08       1.28348369e-07       2.90020759e-06 
      -1.02378167e-07       1.29190556e-07       2.90020746e-06 
      -9.36759315e-08       1.29190556e-07       2.90104966e-06 
       1.03948519e-07       1.34446349e-07       3.03862562e-06 
       9.51102384e-08       1.34446348e-07       3.03776520e-06 
      -1.03978687e-07       1.35306752e-07       3.03776506e-06 
      -9.51404058e-08       1.35306752e-07       3.03862548e-06 
       1.03948519e-07       1.34446349e-07       3.03862562e-06 
       9.51102384e-08       1.34446348e-07       3.03776520e-06 