# vtk DataFile Version 2.0
./output/onsasExample_nonLinearCantileverBlade_staitc3D_pitch numElements=10/onsasExample_nonLinearCantileverBlade_staitc3D_pitch numElements=10_0010.vtk
ASCII
DATASET UNSTRUCTURED_GRID

POINTS 800 float
      -6.009927e-25      -7.180703e-02      -7.180703e-02 
      -6.229420e-25       7.180703e-02      -7.180703e-02 
       6.009927e-25       7.180703e-02       7.180703e-02 
       6.229420e-25      -7.180703e-02       7.180703e-02 
       1.000000e-01      -7.180703e-02      -7.180703e-02 
       1.000000e-01       7.180703e-02      -7.180703e-02 
       1.000000e-01       7.180703e-02       7.180703e-02 
       1.000000e-01      -7.180703e-02       7.180703e-02 
       1.000000e-01      -7.180703e-02      -7.180703e-02 
       1.000000e-01       7.180703e-02      -7.180703e-02 
       1.000000e-01       7.180703e-02       7.180703e-02 
       1.000000e-01      -7.180703e-02       7.180703e-02 
       2.000000e-01      -7.180703e-02      -7.180703e-02 
       2.000000e-01       7.180703e-02      -7.180703e-02 
       2.000000e-01       7.180703e-02       7.180704e-02 
       2.000000e-01      -7.180703e-02       7.180704e-02 
       2.000000e-01      -7.180703e-02      -7.180703e-02 
       2.000000e-01       7.180703e-02      -7.180703e-02 
       2.000000e-01       7.180703e-02       7.180704e-02 
       2.000000e-01      -7.180703e-02       7.180704e-02 
       3.000000e-01      -7.180703e-02      -7.180702e-02 
       3.000000e-01       7.180703e-02      -7.180702e-02 
       3.000000e-01       7.180703e-02       7.180704e-02 
       3.000000e-01      -7.180703e-02       7.180704e-02 
       3.000000e-01      -7.180703e-02      -7.180702e-02 
       3.000000e-01       7.180703e-02      -7.180702e-02 
       3.000000e-01       7.180703e-02       7.180704e-02 
       3.000000e-01      -7.180703e-02       7.180704e-02 
       4.000000e-01      -7.180703e-02      -7.180701e-02 
       4.000000e-01       7.180703e-02      -7.180701e-02 
       4.000000e-01       7.180703e-02       7.180705e-02 
       4.000000e-01      -7.180703e-02       7.180705e-02 
       4.000000e-01      -7.180703e-02      -7.180701e-02 
       4.000000e-01       7.180703e-02      -7.180701e-02 
       4.000000e-01       7.180703e-02       7.180705e-02 
       4.000000e-01      -7.180703e-02       7.180705e-02 
       5.000000e-01      -7.180703e-02      -7.180700e-02 
       5.000000e-01       7.180703e-02      -7.180700e-02 
       5.000000e-01       7.180703e-02       7.180706e-02 
       5.000000e-01      -7.180703e-02       7.180706e-02 
       5.000000e-01      -7.180703e-02      -7.180700e-02 
       5.000000e-01       7.180703e-02      -7.180700e-02 
       5.000000e-01       7.180703e-02       7.180706e-02 
       5.000000e-01      -7.180703e-02       7.180706e-02 
       6.000000e-01      -7.180703e-02      -7.180699e-02 
       6.000000e-01       7.180703e-02      -7.180699e-02 
       6.000000e-01       7.180703e-02       7.180707e-02 
       6.000000e-01      -7.180703e-02       7.180707e-02 
       6.000000e-01      -7.180703e-02      -7.180699e-02 
       6.000000e-01       7.180703e-02      -7.180699e-02 
       6.000000e-01       7.180703e-02       7.180707e-02 
       6.000000e-01      -7.180703e-02       7.180707e-02 
       7.000000e-01      -7.180703e-02      -7.180698e-02 
       7.000000e-01       7.180703e-02      -7.180698e-02 
       7.000000e-01       7.180703e-02       7.180709e-02 
       7.000000e-01      -7.180703e-02       7.180709e-02 
       7.000000e-01      -7.180703e-02      -7.180698e-02 
       7.000000e-01       7.180703e-02      -7.180698e-02 
       7.000000e-01       7.180703e-02       7.180709e-02 
       7.000000e-01      -7.180703e-02       7.180709e-02 
       8.000000e-01      -7.180703e-02      -7.180696e-02 
       8.000000e-01       7.180703e-02      -7.180696e-02 
       8.000000e-01       7.180703e-02       7.180710e-02 
       8.000000e-01      -7.180703e-02       7.180710e-02 
       8.000000e-01      -7.180703e-02      -7.180696e-02 
       8.000000e-01       7.180703e-02      -7.180696e-02 
       8.000000e-01       7.180703e-02       7.180710e-02 
       8.000000e-01      -7.180703e-02       7.180710e-02 
       9.000000e-01      -7.180703e-02      -7.180694e-02 
       9.000000e-01       7.180703e-02      -7.180694e-02 
       9.000000e-01       7.180703e-02       7.180712e-02 
       9.000000e-01      -7.180703e-02       7.180712e-02 
       9.000000e-01      -7.180703e-02      -7.180694e-02 
       9.000000e-01       7.180703e-02      -7.180694e-02 
       9.000000e-01       7.180703e-02       7.180712e-02 
       9.000000e-01      -7.180703e-02       7.180712e-02 
       1.000000e+00      -7.180703e-02      -7.180692e-02 
       1.000000e+00       7.180703e-02      -7.180692e-02 
       1.000000e+00       7.180703e-02       7.180714e-02 
       1.000000e+00      -7.180703e-02       7.180714e-02 
       1.000000e+00      -7.180703e-02      -7.180692e-02 
       1.000000e+00       7.180703e-02      -7.180692e-02 
       1.000000e+00       7.180703e-02       7.180714e-02 
       1.000000e+00      -7.180703e-02       7.180714e-02 
       1.100000e+00      -7.180703e-02      -7.180690e-02 
       1.100000e+00       7.180704e-02      -7.180690e-02 
       1.100000e+00       7.180704e-02       7.180717e-02 
       1.100000e+00      -7.180703e-02       7.180717e-02 
       1.100000e+00      -7.180703e-02      -7.180690e-02 
       1.100000e+00       7.180704e-02      -7.180690e-02 
       1.100000e+00       7.180704e-02       7.180717e-02 
       1.100000e+00      -7.180703e-02       7.180717e-02 
       1.200000e+00      -7.180703e-02      -7.180688e-02 
       1.200000e+00       7.180704e-02      -7.180688e-02 
       1.200000e+00       7.180704e-02       7.180719e-02 
       1.200000e+00      -7.180703e-02       7.180719e-02 
       1.200000e+00      -7.180703e-02      -7.180688e-02 
       1.200000e+00       7.180704e-02      -7.180688e-02 
       1.200000e+00       7.180704e-02       7.180719e-02 
       1.200000e+00      -7.180703e-02       7.180719e-02 
       1.300000e+00      -7.180703e-02      -7.180685e-02 
       1.300000e+00       7.180704e-02      -7.180685e-02 
       1.300000e+00       7.180704e-02       7.180722e-02 
       1.300000e+00      -7.180703e-02       7.180722e-02 
       1.300000e+00      -7.180703e-02      -7.180685e-02 
       1.300000e+00       7.180704e-02      -7.180685e-02 
       1.300000e+00       7.180704e-02       7.180722e-02 
       1.300000e+00      -7.180703e-02       7.180722e-02 
       1.400000e+00      -7.180703e-02      -7.180682e-02 
       1.400000e+00       7.180704e-02      -7.180682e-02 
       1.400000e+00       7.180704e-02       7.180724e-02 
       1.400000e+00      -7.180703e-02       7.180724e-02 
       1.400000e+00      -7.180703e-02      -7.180682e-02 
       1.400000e+00       7.180704e-02      -7.180682e-02 
       1.400000e+00       7.180704e-02       7.180724e-02 
       1.400000e+00      -7.180703e-02       7.180724e-02 
       1.500000e+00      -7.180703e-02      -7.180679e-02 
       1.500000e+00       7.180704e-02      -7.180679e-02 
       1.500000e+00       7.180704e-02       7.180727e-02 
       1.500000e+00      -7.180703e-02       7.180727e-02 
       1.500000e+00      -7.180703e-02      -7.180679e-02 
       1.500000e+00       7.180704e-02      -7.180679e-02 
       1.500000e+00       7.180704e-02       7.180727e-02 
       1.500000e+00      -7.180703e-02       7.180727e-02 
       1.600000e+00      -7.180703e-02      -7.180676e-02 
       1.600000e+00       7.180704e-02      -7.180676e-02 
       1.600000e+00       7.180704e-02       7.180730e-02 
       1.600000e+00      -7.180703e-02       7.180730e-02 
       1.600000e+00      -7.180703e-02      -7.180676e-02 
       1.600000e+00       7.180704e-02      -7.180676e-02 
       1.600000e+00       7.180704e-02       7.180730e-02 
       1.600000e+00      -7.180703e-02       7.180730e-02 
       1.700000e+00      -7.180703e-02      -7.180673e-02 
       1.700000e+00       7.180704e-02      -7.180673e-02 
       1.700000e+00       7.180704e-02       7.180734e-02 
       1.700000e+00      -7.180703e-02       7.180734e-02 
       1.700000e+00      -7.180703e-02      -7.180673e-02 
       1.700000e+00       7.180704e-02      -7.180673e-02 
       1.700000e+00       7.180704e-02       7.180734e-02 
       1.700000e+00      -7.180703e-02       7.180734e-02 
       1.800000e+00      -7.180703e-02      -7.180669e-02 
       1.800000e+00       7.180704e-02      -7.180669e-02 
       1.800000e+00       7.180704e-02       7.180737e-02 
       1.800000e+00      -7.180703e-02       7.180737e-02 
       1.800000e+00      -7.180703e-02      -7.180669e-02 
       1.800000e+00       7.180704e-02      -7.180669e-02 
       1.800000e+00       7.180704e-02       7.180737e-02 
       1.800000e+00      -7.180703e-02       7.180737e-02 
       1.900000e+00      -7.180703e-02      -7.180666e-02 
       1.900000e+00       7.180704e-02      -7.180666e-02 
       1.900000e+00       7.180704e-02       7.180741e-02 
       1.900000e+00      -7.180703e-02       7.180741e-02 
       1.900000e+00      -7.180703e-02      -7.180666e-02 
       1.900000e+00       7.180704e-02      -7.180666e-02 
       1.900000e+00       7.180704e-02       7.180741e-02 
       1.900000e+00      -7.180703e-02       7.180741e-02 
       2.000000e+00      -7.180703e-02      -7.180662e-02 
       2.000000e+00       7.180704e-02      -7.180662e-02 
       2.000000e+00       7.180704e-02       7.180745e-02 
       2.000000e+00      -7.180703e-02       7.180745e-02 
       2.000000e+00      -7.180703e-02      -7.180662e-02 
       2.000000e+00       7.180704e-02      -7.180662e-02 
       2.000000e+00       7.180704e-02       7.180745e-02 
       2.000000e+00      -7.180703e-02       7.180745e-02 
       2.100000e+00      -7.180703e-02      -7.180658e-02 
[...]
POINT_DATA       800 
VECTORS Displacements float
      -6.00992747e-25      -1.38777878e-17      -1.38777878e-17 
      -6.22942027e-25       1.38777878e-17       0.00000000e+00 
       6.00992747e-25       1.38777878e-17       1.38777878e-17 
       6.22942027e-25      -1.38777878e-17       0.00000000e+00 
       1.70282730e-09       1.77161896e-11       1.17185545e-09 
       1.64987755e-09       1.77162174e-11       1.17030027e-09 
      -1.70304996e-09       1.92713623e-11       1.17030025e-09 
      -1.65010022e-09       1.92713345e-11       1.17185542e-09 
       1.70282730e-09       1.77161896e-11       1.17185545e-09 
       1.64987755e-09       1.77162174e-11       1.17030027e-09 
      -1.70304996e-09       1.92713623e-11       1.17030025e-09 
      -1.65010022e-09       1.92713345e-11       1.17185542e-09 
       3.37293313e-09       7.19476145e-11       4.65596008e-09 
       3.26805108e-09       7.19476423e-11       4.65284974e-09 
      -3.37337897e-09       7.50579598e-11       4.65284959e-09 
      -3.26849692e-09       7.50579182e-11       4.65595992e-09 
       3.37293313e-09       7.19476145e-11       4.65596008e-09 
       3.26805108e-09       7.19476423e-11       4.65284974e-09 
      -3.37337897e-09       7.50579598e-11       4.65284959e-09 
      -3.26849692e-09       7.50579182e-11       4.65595992e-09 
       5.01031749e-09       1.61985869e-10       1.04074540e-08 
       4.85452051e-09       1.61985897e-10       1.04027885e-08 
      -5.01098690e-09       1.66651373e-10       1.04027882e-08 
      -4.85518992e-09       1.66651346e-10       1.04074537e-08 
       5.01031749e-09       1.61985869e-10       1.04074540e-08 
       4.85452051e-09       1.61985897e-10       1.04027885e-08 
      -5.01098690e-09       1.66651373e-10       1.04027882e-08 
      -4.85518992e-09       1.66651346e-10       1.04074537e-08 
       6.61498034e-09       2.87122506e-10       1.83814775e-08 
       6.40928582e-09       2.87122548e-10       1.83752568e-08 
      -6.61587402e-09       2.93343197e-10       1.83752562e-08 
      -6.41017950e-09       2.93343169e-10       1.83814769e-08 
       6.61498034e-09       2.87122506e-10       1.83814775e-08 
       6.40928582e-09       2.87122548e-10       1.83752568e-08 
      -6.61587402e-09       2.93343197e-10       1.83752562e-08 
      -6.41017950e-09       2.93343169e-10       1.83814769e-08 
       8.18692181e-09       4.46649107e-10       2.85331706e-08 
       7.93234711e-09       4.46649148e-10       2.85253947e-08 
      -8.18804013e-09       4.54424970e-10       2.85253939e-08 
      -7.93346550e-09       4.54424928e-10       2.85331697e-08 
       8.18692181e-09       4.46649107e-10       2.85331706e-08 
       7.93234711e-09       4.46649148e-10       2.85253947e-08 
      -8.18804013e-09       4.54424970e-10       2.85253939e-08 
      -7.93346550e-09       4.54424928e-10       2.85331697e-08 
       9.72614189e-09       6.39857264e-10       4.08176735e-08 
       9.42370448e-09       6.39857306e-10       4.08083425e-08 
      -9.72748515e-09       6.49188259e-10       4.08083412e-08 
      -9.42504774e-09       6.49188231e-10       4.08176723e-08 
       9.72614189e-09       6.39857264e-10       4.08176735e-08 
       9.42370448e-09       6.39857306e-10       4.08083425e-08 
      -9.72748515e-09       6.49188259e-10       4.08083412e-08 
      -9.42504774e-09       6.49188231e-10       4.08176723e-08 
       1.12326403e-08       8.66038519e-10       5.51901264e-08 
       1.08833575e-08       8.66038546e-10       5.51792402e-08 
      -1.12342092e-08       8.76924658e-10       5.51792386e-08 
      -1.08849265e-08       8.76924630e-10       5.51901247e-08 
       1.12326403e-08       8.66038519e-10       5.51901264e-08 
       1.08833575e-08       8.66038546e-10       5.51792402e-08 
      -1.12342092e-08       8.76924658e-10       5.51792386e-08 
      -1.08849265e-08       8.76924630e-10       5.51901247e-08 
       1.27064174e-08       1.12448442e-09       7.16056695e-08 
       1.23113068e-08       1.12448445e-09       7.15932281e-08 
      -1.27082125e-08       1.13692571e-09       7.15932260e-08 
      -1.23131019e-08       1.13692566e-09       7.16056673e-08 
       1.27064174e-08       1.12448442e-09       7.16056695e-08 
       1.23113068e-08       1.12448445e-09       7.15932281e-08 
      -1.27082125e-08       1.13692571e-09       7.15932260e-08 
      -1.23131019e-08       1.13692566e-09       7.16056673e-08 
       1.41474730e-08       1.41448656e-09       9.00194428e-08 
       1.37075519e-08       1.41448658e-09       9.00054463e-08 
      -1.41494946e-08       1.42848300e-09       9.00054436e-08 
      -1.37095735e-08       1.42848297e-09       9.00194401e-08 
       1.41474730e-08       1.41448656e-09       9.00194428e-08 
       1.37075519e-08       1.41448658e-09       9.00054463e-08 
      -1.41494946e-08       1.42848300e-09       9.00054436e-08 
      -1.37095735e-08       1.42848297e-09       9.00194401e-08 
       1.55558071e-08       1.73533650e-09       1.10386587e-07 
       1.50720931e-08       1.73533653e-09       1.10371035e-07 
      -1.55580556e-08       1.75088812e-09       1.10371032e-07 
      -1.50743413e-08       1.75088809e-09       1.10386583e-07 
       1.55558071e-08       1.73533650e-09       1.10386587e-07 
       1.50720931e-08       1.73533653e-09       1.10371035e-07 
      -1.55580556e-08       1.75088812e-09       1.10371032e-07 
      -1.50743414e-08       1.75088809e-09       1.10386583e-07 
       1.69331817e-08       2.08642009e-09       1.32662946e-07 
       1.64066385e-08       2.08642012e-09       1.32646003e-07 
      -1.69355781e-08       2.10336316e-09       1.32645999e-07 
      -1.64090348e-08       2.10336314e-09       1.32662942e-07 
       1.69331817e-08       2.08642009e-09       1.32662946e-07 
       1.64066385e-08       2.08642012e-09       1.32646003e-07 
      -1.69355781e-08       2.10336316e-09       1.32645999e-07 
      -1.64090348e-08       2.10336314e-09       1.32662942e-07 
       1.82812792e-08       2.46700924e-09       1.56807679e-07 
       1.77128170e-08       2.46700926e-09       1.56789344e-07 
      -1.82838240e-08       2.48534374e-09       1.56789340e-07 
      -1.77153618e-08       2.48534369e-09       1.56807674e-07 
       1.82812792e-08       2.46700924e-09       1.56807679e-07 
       1.77128170e-08       2.46700926e-09       1.56789344e-07 
      -1.82838240e-08       2.48534374e-09       1.56789340e-07 
      -1.77153618e-08       2.48534369e-09       1.56807674e-07 
       1.96000991e-08       2.87647001e-09       1.82780646e-07 
       1.89906282e-08       2.87647003e-09       1.82760920e-07 
      -1.96027941e-08       2.89619594e-09       1.82760915e-07 
      -1.89933231e-08       2.89619591e-09       1.82780641e-07 
       1.96000991e-08       2.87647001e-09       1.82780646e-07 
       1.89906282e-08       2.87647003e-09       1.82760920e-07 
      -1.96027941e-08       2.89619594e-09       1.82760915e-07 
      -1.89933231e-08       2.89619591e-09       1.82780641e-07 
       2.08896416e-08       3.31416861e-09       2.10541711e-07 
       2.02400723e-08       3.31416863e-09       2.10520594e-07 
      -2.08924873e-08       3.33528596e-09       2.10520588e-07 
      -2.02429180e-08       3.33528592e-09       2.10541705e-07 
       2.08896416e-08       3.31416861e-09       2.10541711e-07 
       2.02400723e-08       3.31416863e-09       2.10520594e-07 
      -2.08924873e-08       3.33528596e-09       2.10520588e-07 
      -2.02429180e-08       3.33528592e-09       2.10541705e-07 
       2.21499064e-08       3.77947111e-09       2.40050736e-07 
       2.14611493e-08       3.77947114e-09       2.40028227e-07 
      -2.21529046e-08       3.80197993e-09       2.40028220e-07 
      -2.14641476e-08       3.80197990e-09       2.40050729e-07 
       2.21499064e-08       3.77947111e-09       2.40050736e-07 
       2.14611493e-08       3.77947114e-09       2.40028227e-07 
      -2.21529046e-08       3.80197993e-09       2.40028220e-07 
      -2.14641476e-08       3.80197990e-09       2.40050729e-07 
       2.33808941e-08       4.27174372e-09       2.71267582e-07 
       2.26538592e-08       4.27174375e-09       2.71243682e-07 
      -2.33840454e-08       4.29564397e-09       2.71243674e-07 
      -2.26570105e-08       4.29564394e-09       2.71267575e-07 
       2.33808941e-08       4.27174372e-09       2.71267582e-07 
       2.26538592e-08       4.27174375e-09       2.71243682e-07 
      -2.33840454e-08       4.29564397e-09       2.71243674e-07 
      -2.26570105e-08       4.29564394e-09       2.71267575e-07 
       2.45826042e-08       4.79035253e-09       3.04152113e-07 
       2.38182021e-08       4.79035256e-09       3.04126821e-07 
      -2.45859095e-08       4.81564422e-09       3.04126813e-07 
      -2.38215074e-08       4.81564418e-09       3.04152105e-07 
       2.45826042e-08       4.79035253e-09       3.04152113e-07 
       2.38182021e-08       4.79035256e-09       3.04126821e-07 
      -2.45859095e-08       4.81564422e-09       3.04126813e-07 
      -2.38215074e-08       4.81564418e-09       3.04152105e-07 
       2.57550370e-08       5.33466371e-09       3.38664190e-07 
       2.49541781e-08       5.33466375e-09       3.38637506e-07 
      -2.57584976e-08       5.36134682e-09       3.38637497e-07 
      -2.49576384e-08       5.36134680e-09       3.38664181e-07 
       2.57550370e-08       5.33466371e-09       3.38664190e-07 
       2.49541781e-08       5.33466375e-09       3.38637506e-07 
      -2.57584976e-08       5.36134682e-09       3.38637497e-07 
      -2.49576384e-08       5.36134680e-09       3.38664181e-07 
       2.68981928e-08       5.90404341e-09       3.74763675e-07 
       2.60617870e-08       5.90404343e-09       3.74735601e-07 
      -2.69018092e-08       5.93211795e-09       3.74735591e-07 
      -2.60654032e-08       5.93211792e-09       3.74763666e-07 
       2.68981928e-08       5.90404341e-09       3.74763675e-07 
       2.60617870e-08       5.90404343e-09       3.74735601e-07 
      -2.69018092e-08       5.93211795e-09       3.74735591e-07 
      -2.60654032e-08       5.93211792e-09       3.74763666e-07 
       2.80120709e-08       6.49785774e-09       4.12410432e-07 
       2.71410285e-08       6.49785778e-09       4.12380966e-07 
      -2.80158443e-08       6.52732374e-09       4.12380955e-07 
      -2.71448020e-08       6.52732370e-09       4.12410421e-07 
       2.80120704e-08       6.49785774e-09       4.12410432e-07 
       2.71410281e-08       6.49785774e-09       4.12380966e-07 
      -2.80158445e-08       6.52732372e-09       4.12380955e-07 
      -2.71448022e-08       6.52732372e-09       4.12410421e-07 
       2.90984215e-08       7.11556715e-09       4.51565027e-07 
       2.81935995e-08       7.11556715e-09       4.51534332e-07 
      -2.91022975e-08       7.14626085e-09       4.51534321e-07 
      -2.81974755e-08       7.14626085e-09       4.51565015e-07 
       2.90984215e-08       7.11556715e-09       4.51565027e-07 
       2.81935995e-08       7.11556715e-09       4.51534332e-07 
      -2.91022975e-08       7.14626085e-09       4.51534321e-07 
      -2.81974755e-08       7.14626085e-09       4.51565015e-07 
       3.01589393e-08       7.75651805e-09       4.92191339e-07 
       2.92211406e-08       7.75651805e-09       4.92159417e-07 
      -3.01629188e-08       7.78843948e-09       4.92159405e-07 
      -2.92251201e-08       7.78843948e-09       4.92191326e-07 
       3.01589393e-08       7.75651805e-09       4.92191339e-07 
       2.92211406e-08       7.75651805e-09       4.92159417e-07 
      -3.01629188e-08       7.78843948e-09       4.92159405e-07 
      -2.92251201e-08       7.78843948e-09       4.92191326e-07 
       3.11936241e-08       8.42015116e-09       5.34253953e-07 
       3.02236525e-08       8.42015116e-09       5.34220803e-07 
      -3.11977075e-08       8.45330030e-09       5.34220790e-07 
      -3.02277354e-08       8.45330030e-09       5.34253940e-07 
       3.11936241e-08       8.42015116e-09       5.34253953e-07 
       3.02236525e-08       8.42015116e-09       5.34220803e-07 
      -3.11977075e-08       8.45330030e-09       5.34220790e-07 
      -3.02277354e-08       8.45330030e-09       5.34253940e-07 
       3.22024754e-08       9.10590718e-09       5.77717453e-07 
       3.12011337e-08       9.10590718e-09       5.77683076e-07 
      -3.22066644e-08       9.14028404e-09       5.77683062e-07 
      -3.12053228e-08       9.14028404e-09       5.77717439e-07 
       3.22024754e-08       9.10590718e-09       5.77717453e-07 
       3.12011337e-08       9.10590718e-09       5.77683076e-07 
      -3.22066644e-08       9.14028404e-09       5.77683062e-07 
      -3.12053228e-08       9.14028404e-09       5.77717439e-07 
       3.31854935e-08       9.81322684e-09       6.22546423e-07 
       3.21535851e-08       9.81322684e-09       6.22510818e-07 
      -3.31897900e-08       9.84883143e-09       6.22510804e-07 
      -3.21578817e-08       9.84883143e-09       6.22546409e-07 
       3.31854935e-08       9.81322684e-09       6.22546423e-07 
       3.21535851e-08       9.81322684e-09       6.22510818e-07 
      -3.31897900e-08       9.84883143e-09       6.22510804e-07 
      -3.21578817e-08       9.84883143e-09       6.22546409e-07 
       3.41426785e-08       1.05415509e-08       6.68705449e-07 
       3.30810064e-08       1.05415509e-08       6.68668616e-07 
      -3.41470838e-08       1.05783832e-08       6.68668600e-07 
      -3.30854113e-08       1.05783832e-08       6.68705433e-07 
       3.41426785e-08       1.05415509e-08       6.68705449e-07 
       3.30810064e-08       1.05415509e-08       6.68668616e-07 
      -3.41470838e-08       1.05783832e-08       6.68668600e-07 
      -3.30854113e-08       1.05783832e-08       6.68705433e-07 
       3.50740303e-08       1.12903199e-08       7.16159113e-07 
       3.39833979e-08       1.12903199e-08       7.16121053e-07 
      -3.50785450e-08       1.13283800e-08       7.16121036e-07 
      -3.39879125e-08       1.13283800e-08       7.16159097e-07 
       3.50740303e-08       1.12903199e-08       7.16159113e-07 
       3.39833979e-08       1.12903199e-08       7.16121053e-07 
      -3.50785450e-08       1.13283800e-08       7.16121036e-07 
      -3.39879125e-08       1.13283800e-08       7.16159097e-07 
       3.59795496e-08       1.20589748e-08       7.64872001e-07 
       3.48607601e-08       1.20589748e-08       7.64832713e-07 
      -3.59841743e-08       1.20982626e-08       7.64832696e-07 
      -3.48653844e-08       1.20982626e-08       7.64871984e-07 
       3.59795496e-08       1.20589748e-08       7.64872001e-07 
       3.48607601e-08       1.20589748e-08       7.64832713e-07 
      -3.59841743e-08       1.20982626e-08       7.64832696e-07 
      -3.48653844e-08       1.20982626e-08       7.64871984e-07 
       3.68592357e-08       1.28469561e-08       8.14808697e-07 
       3.57130916e-08       1.28469561e-08       8.14768181e-07 
      -3.68639714e-08       1.28874716e-08       8.14768163e-07 
      -3.57178278e-08       1.28874716e-08       8.14808679e-07 
       3.68592357e-08       1.28469561e-08       8.14808697e-07 
       3.57130916e-08       1.28469561e-08       8.14768181e-07 
      -3.68639714e-08       1.28874716e-08       8.14768163e-07 
      -3.57178278e-08       1.28874716e-08       8.14808679e-07 
       3.77130878e-08       1.36537047e-08       8.65933785e-07 
       3.65403938e-08       1.36537047e-08       8.65892042e-07 
      -3.77179372e-08       1.36954479e-08       8.65892022e-07 
      -3.65452428e-08       1.36954479e-08       8.65933766e-07 
       3.77130878e-08       1.36537046e-08       8.65933785e-07 
       3.65403934e-08       1.36537047e-08       8.65892042e-07 
      -3.77179372e-08       1.36954479e-08       8.65892022e-07 
      -3.65452428e-08       1.36954478e-08       8.65933766e-07 
       3.85428485e-08       1.44787554e-08       9.18212555e-07 
       3.73443529e-08       1.44787554e-08       9.18169747e-07 
      -3.85477743e-08       1.45215627e-08       9.18169727e-07 
      -3.73492788e-08       1.45215626e-08       9.18212535e-07 
       3.85428485e-08       1.44787554e-08       9.18212555e-07 
       3.73443529e-08       1.44787554e-08       9.18169747e-07 
      -3.85477743e-08       1.45215627e-08       9.18169727e-07 
      -3.73492788e-08       1.45215626e-08       9.18212535e-07 
       3.93502200e-08       1.53215293e-08       9.71613608e-07 
       3.81266196e-08       1.53215293e-08       9.71569736e-07 
      -3.93552235e-08       1.53654006e-08       9.71569715e-07 
      -3.81316232e-08       1.53654005e-08       9.71613587e-07 
       3.93502200e-08       1.53215293e-08       9.71613608e-07 
       3.81266196e-08       1.53215293e-08       9.71569736e-07 
      -3.93552235e-08       1.53654006e-08       9.71569715e-07 
      -3.81316232e-08       1.53654005e-08       9.71613587e-07 
       4.01352032e-08       1.61815417e-08       1.02610625e-06 
       3.88871939e-08       1.61815417e-08       1.02606131e-06 
      -4.01402849e-08       1.62264770e-08       1.02606129e-06 
      -3.88922756e-08       1.62264770e-08       1.02610623e-06 
       4.01352032e-08       1.61815417e-08       1.02610625e-06 
       3.88871939e-08       1.61815417e-08       1.02606131e-06 
      -4.01402849e-08       1.62264770e-08       1.02606129e-06 
      -3.88922756e-08       1.62264770e-08       1.02610623e-06 
       4.08977971e-08       1.70583078e-08       1.08165979e-06 
       3.96260753e-08       1.70583079e-08       1.08161379e-06 
      -4.09029588e-08       1.71043072e-08       1.08161376e-06 
      -3.96312370e-08       1.71043072e-08       1.08165977e-06 
       4.08977971e-08       1.70583078e-08       1.08165979e-06 
       3.96260753e-08       1.70583079e-08       1.08161379e-06 
      -4.09029588e-08       1.71043072e-08       1.08161376e-06 
      -3.96312370e-08       1.71043072e-08       1.08165977e-06 
       4.16380024e-08       1.79513431e-08       1.13824353e-06 
       4.03432638e-08       1.79513431e-08       1.13819646e-06 
      -4.16432453e-08       1.79984065e-08       1.13819644e-06 
      -4.03485068e-08       1.79984064e-08       1.13824350e-06 
       4.16380024e-08       1.79513431e-08       1.13824353e-06 
       4.03432638e-08       1.79513431e-08       1.13819646e-06 
      -4.16432453e-08       1.79984065e-08       1.13819644e-06 
      -4.03485068e-08       1.79984064e-08       1.13824350e-06 
       4.23558189e-08       1.88601626e-08       1.19582678e-06 
       4.10387599e-08       1.88601627e-08       1.19577865e-06 
      -4.23611444e-08       1.89082900e-08       1.19577862e-06 
      -4.10440855e-08       1.89082900e-08       1.19582675e-06 
       4.23558189e-08       1.88601626e-08       1.19582678e-06 
       4.10387599e-08       1.88601627e-08       1.19577865e-06 
      -4.23611444e-08       1.89082900e-08       1.19577862e-06 
      -4.10440855e-08       1.89082900e-08       1.19582675e-06 
       4.30512466e-08       1.97842818e-08       1.25437884e-06 
       4.17125632e-08       1.97842818e-08       1.25432965e-06 
      -4.30566556e-08       1.98334732e-08       1.25432962e-06 
      -4.17179722e-08       1.98334731e-08       1.25437881e-06 
       4.30512466e-08       1.97842818e-08       1.25437884e-06 
       4.17125632e-08       1.97842818e-08       1.25432965e-06 
      -4.30566556e-08       1.98334732e-08       1.25432962e-06 
      -4.17179722e-08       1.98334731e-08       1.25437881e-06 
       4.37242860e-08       2.07232158e-08       1.31386903e-06 
       4.23646744e-08       2.07232159e-08       1.31381877e-06 
      -4.37297785e-08       2.07734713e-08       1.31381874e-06 
      -4.23701669e-08       2.07734712e-08       1.31386900e-06 
       4.37242860e-08       2.07232158e-08       1.31386903e-06 
       4.23646744e-08       2.07232159e-08       1.31381877e-06 