# vtk DataFile Version 2.0
./output/onsasExample_nonLinearCantileverBlade_staitc3D_pitch numElements=10/onsasExample_nonLinearCantileverBlade_staitc3D_pitch numElements=10_0008.vtk
ASCII
DATASET UNSTRUCTURED_GRID

POINTS 800 float
      -1.301427e-24      -7.180703e-02      -7.180703e-02 
      -4.665500e-25       7.180703e-02      -7.180703e-02 
       1.301427e-24       7.180703e-02       7.180703e-02 
       4.665500e-25      -7.180703e-02       7.180703e-02 
       1.000000e-01      -7.180703e-02      -7.180703e-02 
       1.000000e-01       7.180703e-02      -7.180703e-02 
       1.000000e-01       7.180703e-02       7.180703e-02 
       1.000000e-01      -7.180703e-02       7.180703e-02 
       1.000000e-01      -7.180703e-02      -7.180703e-02 
       1.000000e-01       7.180703e-02      -7.180703e-02 
       1.000000e-01       7.180703e-02       7.180703e-02 
       1.000000e-01      -7.180703e-02       7.180703e-02 
       2.000000e-01      -7.180703e-02      -7.180703e-02 
       2.000000e-01       7.180703e-02      -7.180703e-02 
       2.000000e-01       7.180703e-02       7.180704e-02 
       2.000000e-01      -7.180703e-02       7.180704e-02 
       2.000000e-01      -7.180703e-02      -7.180703e-02 
       2.000000e-01       7.180703e-02      -7.180703e-02 
       2.000000e-01       7.180703e-02       7.180704e-02 
       2.000000e-01      -7.180703e-02       7.180704e-02 
       3.000000e-01      -7.180703e-02      -7.180703e-02 
       3.000000e-01       7.180703e-02      -7.180703e-02 
       3.000000e-01       7.180703e-02       7.180704e-02 
       3.000000e-01      -7.180703e-02       7.180704e-02 
       3.000000e-01      -7.180703e-02      -7.180703e-02 
       3.000000e-01       7.180703e-02      -7.180703e-02 
       3.000000e-01       7.180703e-02       7.180704e-02 
       3.000000e-01      -7.180703e-02       7.180704e-02 
       4.000000e-01      -7.180703e-02      -7.180702e-02 
       4.000000e-01       7.180703e-02      -7.180702e-02 
       4.000000e-01       7.180703e-02       7.180704e-02 
       4.000000e-01      -7.180703e-02       7.180704e-02 
       4.000000e-01      -7.180703e-02      -7.180702e-02 
       4.000000e-01       7.180703e-02      -7.180702e-02 
       4.000000e-01       7.180703e-02       7.180704e-02 
       4.000000e-01      -7.180703e-02       7.180704e-02 
       5.000000e-01      -7.180703e-02      -7.180702e-02 
       5.000000e-01       7.180703e-02      -7.180702e-02 
       5.000000e-01       7.180703e-02       7.180705e-02 
       5.000000e-01      -7.180703e-02       7.180705e-02 
       5.000000e-01      -7.180703e-02      -7.180702e-02 
       5.000000e-01       7.180703e-02      -7.180702e-02 
       5.000000e-01       7.180703e-02       7.180705e-02 
       5.000000e-01      -7.180703e-02       7.180705e-02 
       6.000000e-01      -7.180703e-02      -7.180701e-02 
       6.000000e-01       7.180703e-02      -7.180701e-02 
       6.000000e-01       7.180703e-02       7.180706e-02 
       6.000000e-01      -7.180703e-02       7.180706e-02 
       6.000000e-01      -7.180703e-02      -7.180701e-02 
       6.000000e-01       7.180703e-02      -7.180701e-02 
       6.000000e-01       7.180703e-02       7.180706e-02 
       6.000000e-01      -7.180703e-02       7.180706e-02 
       7.000000e-01      -7.180703e-02      -7.180700e-02 
       7.000000e-01       7.180703e-02      -7.180700e-02 
       7.000000e-01       7.180703e-02       7.180707e-02 
       7.000000e-01      -7.180703e-02       7.180707e-02 
       7.000000e-01      -7.180703e-02      -7.180700e-02 
       7.000000e-01       7.180703e-02      -7.180700e-02 
       7.000000e-01       7.180703e-02       7.180707e-02 
       7.000000e-01      -7.180703e-02       7.180707e-02 
       8.000000e-01      -7.180703e-02      -7.180699e-02 
       8.000000e-01       7.180703e-02      -7.180699e-02 
       8.000000e-01       7.180703e-02       7.180708e-02 
       8.000000e-01      -7.180703e-02       7.180708e-02 
       8.000000e-01      -7.180703e-02      -7.180699e-02 
       8.000000e-01       7.180703e-02      -7.180699e-02 
       8.000000e-01       7.180703e-02       7.180708e-02 
       8.000000e-01      -7.180703e-02       7.180708e-02 
       9.000000e-01      -7.180703e-02      -7.180698e-02 
       9.000000e-01       7.180703e-02      -7.180698e-02 
       9.000000e-01       7.180703e-02       7.180709e-02 
       9.000000e-01      -7.180703e-02       7.180709e-02 
       9.000000e-01      -7.180703e-02      -7.180698e-02 
       9.000000e-01       7.180703e-02      -7.180698e-02 
       9.000000e-01       7.180703e-02       7.180709e-02 
       9.000000e-01      -7.180703e-02       7.180709e-02 
       1.000000e+00      -7.180703e-02      -7.180697e-02 
       1.000000e+00       7.180703e-02      -7.180697e-02 
       1.000000e+00       7.180703e-02       7.180710e-02 
       1.000000e+00      -7.180703e-02       7.180710e-02 
       1.000000e+00      -7.180703e-02      -7.180697e-02 
       1.000000e+00       7.180703e-02      -7.180697e-02 
       1.000000e+00       7.180703e-02       7.180710e-02 
       1.000000e+00      -7.180703e-02       7.180710e-02 
       1.100000e+00      -7.180703e-02      -7.180695e-02 
       1.100000e+00       7.180703e-02      -7.180695e-02 
       1.100000e+00       7.180703e-02       7.180711e-02 
       1.100000e+00      -7.180703e-02       7.180711e-02 
       1.100000e+00      -7.180703e-02      -7.180695e-02 
       1.100000e+00       7.180703e-02      -7.180695e-02 
       1.100000e+00       7.180703e-02       7.180711e-02 
       1.100000e+00      -7.180703e-02       7.180711e-02 
       1.200000e+00      -7.180703e-02      -7.180694e-02 
       1.200000e+00       7.180703e-02      -7.180694e-02 
       1.200000e+00       7.180703e-02       7.180713e-02 
       1.200000e+00      -7.180703e-02       7.180713e-02 
       1.200000e+00      -7.180703e-02      -7.180694e-02 
       1.200000e+00       7.180703e-02      -7.180694e-02 
       1.200000e+00       7.180703e-02       7.180713e-02 
       1.200000e+00      -7.180703e-02       7.180713e-02 
       1.300000e+00      -7.180703e-02      -7.180692e-02 
       1.300000e+00       7.180703e-02      -7.180692e-02 
       1.300000e+00       7.180703e-02       7.180714e-02 
       1.300000e+00      -7.180703e-02       7.180714e-02 
       1.300000e+00      -7.180703e-02      -7.180692e-02 
       1.300000e+00       7.180703e-02      -7.180692e-02 
       1.300000e+00       7.180703e-02       7.180714e-02 
       1.300000e+00      -7.180703e-02       7.180714e-02 
       1.400000e+00      -7.180703e-02      -7.180691e-02 
       1.400000e+00       7.180703e-02      -7.180691e-02 
       1.400000e+00       7.180703e-02       7.180716e-02 
       1.400000e+00      -7.180703e-02       7.180716e-02 
       1.400000e+00      -7.180703e-02      -7.180691e-02 
       1.400000e+00       7.180703e-02      -7.180691e-02 
       1.400000e+00       7.180703e-02       7.180716e-02 
       1.400000e+00      -7.180703e-02       7.180716e-02 
       1.500000e+00      -7.180703e-02      -7.180689e-02 
       1.500000e+00       7.180703e-02      -7.180689e-02 
       1.500000e+00       7.180703e-02       7.180718e-02 
       1.500000e+00      -7.180703e-02       7.180718e-02 
       1.500000e+00      -7.180703e-02      -7.180689e-02 
       1.500000e+00       7.180703e-02      -7.180689e-02 
       1.500000e+00       7.180703e-02       7.180718e-02 
       1.500000e+00      -7.180703e-02       7.180718e-02 
       1.600000e+00      -7.180703e-02      -7.180687e-02 
       1.600000e+00       7.180704e-02      -7.180687e-02 
       1.600000e+00       7.180704e-02       7.180719e-02 
       1.600000e+00      -7.180703e-02       7.180719e-02 
       1.600000e+00      -7.180703e-02      -7.180687e-02 
       1.600000e+00       7.180704e-02      -7.180687e-02 
       1.600000e+00       7.180704e-02       7.180719e-02 
       1.600000e+00      -7.180703e-02       7.180719e-02 
       1.700000e+00      -7.180703e-02      -7.180685e-02 
       1.700000e+00       7.180704e-02      -7.180685e-02 
       1.700000e+00       7.180704e-02       7.180721e-02 
       1.700000e+00      -7.180703e-02       7.180721e-02 
       1.700000e+00      -7.180703e-02      -7.180685e-02 
       1.700000e+00       7.180704e-02      -7.180685e-02 
       1.700000e+00       7.180704e-02       7.180721e-02 
       1.700000e+00      -7.180703e-02       7.180721e-02 
       1.800000e+00      -7.180703e-02      -7.180683e-02 
       1.800000e+00       7.180704e-02      -7.180683e-02 
       1.800000e+00       7.180704e-02       7.180723e-02 
       1.800000e+00      -7.180703e-02       7.180723e-02 
       1.800000e+00      -7.180703e-02      -7.180683e-02 
       1.800000e+00       7.180704e-02      -7.180683e-02 
       1.800000e+00       7.180704e-02       7.180723e-02 
       1.800000e+00      -7.180703e-02       7.180723e-02 
       1.900000e+00      -7.180703e-02      -7.180681e-02 
       1.900000e+00       7.180704e-02      -7.180681e-02 
       1.900000e+00       7.180704e-02       7.180725e-02 
       1.900000e+00      -7.180703e-02       7.180725e-02 
       1.900000e+00      -7.180703e-02      -7.180681e-02 
       1.900000e+00       7.180704e-02      -7.180681e-02 
       1.900000e+00       7.180704e-02       7.180725e-02 
       1.900000e+00      -7.180703e-02       7.180725e-02 
       2.000000e+00      -7.180703e-02      -7.180679e-02 
       2.000000e+00       7.180704e-02      -7.180679e-02 
       2.000000e+00       7.180704e-02       7.180728e-02 
       2.000000e+00      -7.180703e-02       7.180728e-02 
       2.000000e+00      -7.180703e-02      -7.180679e-02 
       2.000000e+00       7.180704e-02      -7.180679e-02 
       2.000000e+00       7.180704e-02       7.180728e-02 
       2.000000e+00      -7.180703e-02       7.180728e-02 
       2.100000e+00      -7.180703e-02      -7.180677e-02 
[...]
POINT_DATA       800 
VECTORS Displacements float
      -1.30142702e-24       0.00000000e+00       0.00000000e+00 
      -4.66550008e-25       2.77555756e-17      -1.38777878e-17 
       1.30142702e-24       0.00000000e+00       0.00000000e+00 
       4.66550008e-25      -2.77555756e-17       1.38777878e-17 
       1.00396377e-09       7.95237487e-12       6.93384142e-10 
       9.79837822e-10       7.95240263e-12       6.92435970e-10 
      -1.00404156e-09       8.90057472e-12       6.92435970e-10 
      -9.79915607e-10       8.90054697e-12       6.93384142e-10 
       1.00396377e-09       7.95237487e-12       6.93384142e-10 
       9.79837822e-10       7.95240263e-12       6.92435970e-10 
      -1.00404156e-09       8.90057472e-12       6.92435970e-10 
      -9.79915607e-10       8.90054697e-12       6.93384142e-10 
       1.98863595e-09       3.25425104e-11       2.75489312e-09 
       1.94084765e-09       3.25425381e-11       2.75299676e-09 
      -1.98879171e-09       3.44388823e-11       2.75299675e-09 
      -1.94100341e-09       3.44388545e-11       2.75489311e-09 
       1.98863595e-09       3.25425104e-11       2.75489312e-09 
       1.94084765e-09       3.25425381e-11       2.75299676e-09 
      -1.98879171e-09       3.44388823e-11       2.75299675e-09 
      -1.94100341e-09       3.44388545e-11       2.75489311e-09 
       2.95401659e-09       7.34475952e-11       6.15798401e-09 
       2.88302948e-09       7.34476230e-11       6.15513948e-09 
      -2.95425051e-09       7.62921670e-11       6.15513938e-09 
      -2.88326341e-09       7.62921254e-11       6.15798391e-09 
       2.95401659e-09       7.34475952e-11       6.15798401e-09 
       2.88302948e-09       7.34476230e-11       6.15513948e-09 
      -2.95425051e-09       7.62921670e-11       6.15513938e-09 
      -2.88326341e-09       7.62921254e-11       6.15798391e-09 
       3.90010568e-09       1.30344888e-10       1.08761139e-08 
       3.80638338e-09       1.30344915e-10       1.08723212e-08 
      -3.90041788e-09       1.34137604e-10       1.08723210e-08 
      -3.80669557e-09       1.34137576e-10       1.08761137e-08 
       3.90010568e-09       1.30344888e-10       1.08761139e-08 
       3.80638338e-09       1.30344915e-10       1.08723212e-08 
      -3.90041788e-09       1.34137604e-10       1.08723210e-08 
      -3.80669557e-09       1.34137576e-10       1.08761137e-08 
       4.82690321e-09       2.02911535e-10       1.68827398e-08 
       4.71090911e-09       2.02911563e-10       1.68779989e-08 
      -4.82729390e-09       2.07652437e-10       1.68779986e-08 
      -4.71129991e-09       2.07652409e-10       1.68827395e-08 
       4.82690321e-09       2.02911535e-10       1.68827398e-08 
       4.71090911e-09       2.02911563e-10       1.68779989e-08 
      -4.82729390e-09       2.07652437e-10       1.68779986e-08 
      -4.71129991e-09       2.07652409e-10       1.68827395e-08 
       5.73440917e-09       2.90824781e-10       2.41513189e-08 
       5.59660707e-09       2.90824809e-10       2.41456298e-08 
      -5.73487857e-09       2.96513869e-10       2.41456294e-08 
      -5.59707647e-09       2.96513827e-10       2.41513184e-08 
       5.73440917e-09       2.90824781e-10       2.41513189e-08 
       5.59660707e-09       2.90824809e-10       2.41456298e-08 
      -5.73487857e-09       2.96513869e-10       2.41456294e-08 
      -5.59707647e-09       2.96513827e-10       2.41513184e-08 
       6.62262356e-09       3.93761856e-10       3.26553081e-08 
       6.46347686e-09       3.93761884e-10       3.26486709e-08 
      -6.62317179e-09       4.00399103e-10       3.26486703e-08 
      -6.46402509e-09       4.00399075e-10       3.26553076e-08 
       6.62262356e-09       3.93761856e-10       3.26553081e-08 
       6.46347686e-09       3.93761884e-10       3.26486709e-08 
      -6.62317179e-09       4.00399103e-10       3.26486703e-08 
      -6.46402509e-09       4.00399075e-10       3.26553076e-08 
       7.49154649e-09       5.11399936e-10       4.23681647e-08 
       7.31151895e-09       5.11399964e-10       4.23605793e-08 
      -7.49217355e-09       5.18985369e-10       4.23605785e-08 
      -7.31214600e-09       5.18985327e-10       4.23681639e-08 
       7.49154649e-09       5.11399936e-10       4.23681647e-08 
       7.31151895e-09       5.11399964e-10       4.23605793e-08 
      -7.49217355e-09       5.18985369e-10       4.23605785e-08 
      -7.31214600e-09       5.18985327e-10       4.23681639e-08 
       8.34117775e-09       6.43416265e-10       5.32633456e-08 
       8.14073275e-09       6.43416292e-10       5.32548120e-08 
      -8.34188407e-09       6.51949855e-10       5.32548110e-08 
      -8.14143908e-09       6.51949827e-10       5.32633446e-08 
       8.34117775e-09       6.43416265e-10       5.32633456e-08 
       8.14073275e-09       6.43416292e-10       5.32548120e-08 
      -8.34188407e-09       6.51949855e-10       5.32548110e-08 
      -8.14143908e-09       6.51949827e-10       5.32633446e-08 
       9.17151755e-09       7.89488031e-10       6.53143079e-08 
       8.95111874e-09       7.89488058e-10       6.53048261e-08 
      -9.17230314e-09       7.98969793e-10       6.53048250e-08 
      -8.95190433e-09       7.98969765e-10       6.53143067e-08 
       9.17151755e-09       7.89488031e-10       6.53143079e-08 
       8.95111874e-09       7.89488031e-10       6.53048261e-08 
      -9.17230314e-09       7.98969779e-10       6.53048250e-08 
      -8.95190433e-09       7.98969779e-10       6.53143068e-08 
       9.98359484e-09       9.49348017e-10       7.84949245e-08 
       9.74368142e-09       9.49348017e-10       7.84845943e-08 
      -9.98443239e-09       9.59678129e-10       7.84845930e-08 
      -9.74451897e-09       9.59678129e-10       7.84949231e-08 
       9.98359484e-09       9.49348017e-10       7.84949245e-08 
       9.74368142e-09       9.49348017e-10       7.84845943e-08 
      -9.98443239e-09       9.59678129e-10       7.84845930e-08 
      -9.74451897e-09       9.59678129e-10       7.84949231e-08 
       1.07784115e-08       1.12265186e-09       9.27810306e-08 
       1.05193982e-08       1.12265186e-09       9.27698521e-08 
      -1.07793006e-08       1.13383032e-09       9.27698505e-08 
      -1.05202873e-08       1.13383032e-09       9.27810290e-08 
       1.07784115e-08       1.12265186e-09       9.27810306e-08 
       1.05193982e-08       1.12265186e-09       9.27698521e-08 
      -1.07793006e-08       1.13383032e-09       9.27698505e-08 
      -1.05202873e-08       1.13383032e-09       9.27810290e-08 
       1.15559671e-08       1.30911074e-09       1.08148877e-07 
       1.12782685e-08       1.30911074e-09       1.08136851e-07 
      -1.15569085e-08       1.32113756e-09       1.08136849e-07 
      -1.12792102e-08       1.32113756e-09       1.08148876e-07 
       1.15559671e-08       1.30911074e-09       1.08148877e-07 
       1.12782685e-08       1.30911074e-09       1.08136851e-07 
      -1.15569085e-08       1.32113756e-09       1.08136849e-07 
      -1.12792102e-08       1.32113756e-09       1.08148876e-07 
       1.23162616e-08       1.50843583e-09       1.24574716e-07 
       1.20202928e-08       1.50843583e-09       1.24561841e-07 
      -1.23172559e-08       1.52131102e-09       1.24561839e-07 
      -1.20212871e-08       1.52131102e-09       1.24574714e-07 
       1.23162616e-08       1.50843583e-09       1.24574716e-07 
       1.20202928e-08       1.50843583e-09       1.24561841e-07 
      -1.23172559e-08       1.52131102e-09       1.24561839e-07 
      -1.20212871e-08       1.52131102e-09       1.24574714e-07 
       1.30592950e-08       1.72033834e-09       1.42034797e-07 
       1.27454709e-08       1.72033834e-09       1.42021073e-07 
      -1.30603426e-08       1.73406189e-09       1.42021071e-07 
      -1.27465185e-08       1.73406189e-09       1.42034795e-07 
       1.30592950e-08       1.72033834e-09       1.42034797e-07 
       1.27454709e-08       1.72033834e-09       1.42021073e-07 
      -1.30603426e-08       1.73406189e-09       1.42021071e-07 
      -1.27465185e-08       1.73406189e-09       1.42034795e-07 
       1.37850675e-08       1.94452947e-09       1.60505372e-07 
       1.34538025e-08       1.94452947e-09       1.60490800e-07 
      -1.37861687e-08       1.95910137e-09       1.60490798e-07 
      -1.34549039e-08       1.95910137e-09       1.60505370e-07 
       1.37850675e-08       1.94452947e-09       1.60505372e-07 
       1.34538025e-08       1.94452947e-09       1.60490800e-07 
      -1.37861687e-08       1.95910137e-09       1.60490798e-07 
      -1.34549039e-08       1.95910137e-09       1.60505370e-07 
       1.44935790e-08       2.18072038e-09       1.79962692e-07 
       1.41452883e-08       2.18072038e-09       1.79947272e-07 
      -1.44947341e-08       2.19614066e-09       1.79947269e-07 
      -1.41464434e-08       2.19614066e-09       1.79962689e-07 
       1.44935790e-08       2.18072038e-09       1.79962692e-07 
       1.41452883e-08       2.18072038e-09       1.79947272e-07 
      -1.44947341e-08       2.19614066e-09       1.79947269e-07 
      -1.41464434e-08       2.19614066e-09       1.79962689e-07 
       1.51848296e-08       2.42862226e-09       2.00383008e-07 
       1.48199275e-08       2.42862226e-09       2.00366739e-07 
      -1.51860389e-08       2.44489091e-09       2.00366736e-07 
      -1.48211368e-08       2.44489091e-09       2.00383005e-07 
       1.51848296e-08       2.42862226e-09       2.00383008e-07 
       1.48199275e-08       2.42862226e-09       2.00366739e-07 
      -1.51860389e-08       2.44489091e-09       2.00366736e-07 
      -1.48211368e-08       2.44489091e-09       2.00383005e-07 
       1.58588196e-08       2.68794634e-09       2.21742571e-07 
       1.54777209e-08       2.68794634e-09       2.21725454e-07 
      -1.58600830e-08       2.70506333e-09       2.21725450e-07 
      -1.54789845e-08       2.70506333e-09       2.21742568e-07 
       1.58588196e-08       2.68794634e-09       2.21742571e-07 
       1.54777209e-08       2.68794634e-09       2.21725454e-07 
      -1.58600830e-08       2.70506333e-09       2.21725450e-07 
      -1.54789845e-08       2.70506333e-09       2.21742568e-07 
       1.65155480e-08       2.95840376e-09       2.44017632e-07 
       1.61186677e-08       2.95840376e-09       2.43999667e-07 
      -1.65168668e-08       2.97636912e-09       2.43999663e-07 
      -1.61199865e-08       2.97636912e-09       2.44017628e-07 
       1.65155480e-08       2.95840377e-09       2.44017632e-07 
       1.61186677e-08       2.95840377e-09       2.43999667e-07 
      -1.65168670e-08       2.97636912e-09       2.43999663e-07 
      -1.61199867e-08       2.97636912e-09       2.44017628e-07 
       1.71560410e-08       3.23976132e-09       2.67184858e-07 
       1.67437690e-08       3.23976132e-09       2.67166144e-07 
      -1.71573955e-08       3.25847523e-09       2.67166140e-07 
      -1.67451240e-08       3.25847523e-09       2.67184854e-07 
       1.71560410e-08       3.23976132e-09       2.67184858e-07 
       1.67437690e-08       3.23976132e-09       2.67166144e-07 
      -1.71573955e-08       3.25847523e-09       2.67166140e-07 
      -1.67451240e-08       3.25847523e-09       2.67184854e-07 
       1.77813031e-08       3.53170859e-09       2.91222878e-07 
       1.73540062e-08       3.53170859e-09       2.91203416e-07 
      -1.77826944e-08       3.55117104e-09       2.91203411e-07 
      -1.73553971e-08       3.55117104e-09       2.91222874e-07 
       1.77813031e-08       3.53170859e-09       2.91222878e-07 
       1.73540062e-08       3.53170859e-09       2.91203416e-07 
      -1.77826944e-08       3.55117104e-09       2.91203411e-07 
      -1.73553971e-08       3.55117104e-09       2.91222874e-07 
       1.83913360e-08       3.83399075e-09       3.16110738e-07 
       1.79493798e-08       3.83399075e-09       3.16090527e-07 
      -1.83927624e-08       3.85420175e-09       3.16090522e-07 
      -1.79508062e-08       3.85420175e-09       3.16110733e-07 
       1.83913360e-08       3.83399075e-09       3.16110738e-07 
       1.79493798e-08       3.83399075e-09       3.16090527e-07 
      -1.83927624e-08       3.85420175e-09       3.16090522e-07 
      -1.79508062e-08       3.85420175e-09       3.16110733e-07 
       1.89861376e-08       4.14635294e-09       3.41827482e-07 
       1.85298878e-08       4.14635294e-09       3.41806522e-07 
      -1.89876017e-08       4.16731250e-09       3.41806517e-07 
      -1.85313520e-08       4.16731250e-09       3.41827477e-07 
       1.89861376e-08       4.14635294e-09       3.41827482e-07 
       1.85298878e-08       4.14635294e-09       3.41806522e-07 
      -1.89876017e-08       4.16731250e-09       3.41806517e-07 
      -1.85313520e-08       4.16731250e-09       3.41827477e-07 
       1.95657091e-08       4.46854037e-09       3.68352155e-07 
       1.90955318e-08       4.46854037e-09       3.68330446e-07 
      -1.95672110e-08       4.49024848e-09       3.68330441e-07 
      -1.90970337e-08       4.49024848e-09       3.68352150e-07 
       1.95657091e-08       4.46854037e-09       3.68352155e-07 
       1.90955318e-08       4.46854037e-09       3.68330446e-07 
      -1.95672110e-08       4.49024848e-09       3.68330441e-07 
      -1.90970337e-08       4.49024848e-09       3.68352150e-07 
       2.01300501e-08       4.80029819e-09       3.95663802e-07 
       1.96463117e-08       4.80029819e-09       3.95641346e-07 
      -2.01315897e-08       4.82275485e-09       3.95641340e-07 
      -1.96478513e-08       4.82275485e-09       3.95663797e-07 
       2.01300501e-08       4.80029819e-09       3.95663802e-07 
       1.96463117e-08       4.80029819e-09       3.95641346e-07 
      -2.01315897e-08       4.82275485e-09       3.95641340e-07 
      -1.96478513e-08       4.82275485e-09       3.95663797e-07 
       2.06791611e-08       5.14137156e-09       4.23741470e-07 
       2.01822270e-08       5.14137156e-09       4.23718264e-07 
      -2.06807393e-08       5.16457678e-09       4.23718258e-07 
      -2.01838053e-08       5.16457678e-09       4.23741464e-07 
       2.06791611e-08       5.14137156e-09       4.23741470e-07 
       2.01822270e-08       5.14137156e-09       4.23718264e-07 
      -2.06807393e-08       5.16457678e-09       4.23718258e-07 
      -2.01838053e-08       5.16457678e-09       4.23741464e-07 
       2.12130420e-08       5.49150567e-09       4.52564201e-07 
       2.07032786e-08       5.49150567e-09       4.52540247e-07 
      -2.12146580e-08       5.51545941e-09       4.52540241e-07 
      -2.07048947e-08       5.51545941e-09       4.52564195e-07 
       2.12130420e-08       5.49150567e-09       4.52564201e-07 
       2.07032786e-08       5.49150567e-09       4.52540247e-07 
      -2.12146580e-08       5.51545941e-09       4.52540241e-07 
      -2.07048947e-08       5.51545941e-09       4.52564195e-07 
       2.17316924e-08       5.85044564e-09       4.82111043e-07 
       2.12094653e-08       5.85044564e-09       4.82086340e-07 
      -2.17333476e-08       5.87514795e-09       4.82086334e-07 
      -2.12111204e-08       5.87514795e-09       4.82111036e-07 
       2.17316924e-08       5.85044564e-09       4.82111043e-07 
       2.12094653e-08       5.85044564e-09       4.82086340e-07 
      -2.17333476e-08       5.87514795e-09       4.82086334e-07 
      -2.12111204e-08       5.87514795e-09       4.82111036e-07 
       2.22351124e-08       6.21793668e-09       5.12361039e-07 
       2.17007878e-08       6.21793668e-09       5.12335588e-07 
      -2.22368071e-08       6.24338754e-09       5.12335581e-07 
      -2.17024825e-08       6.24338754e-09       5.12361032e-07 
       2.22351124e-08       6.21793669e-09       5.12361039e-07 
       2.17007878e-08       6.21793668e-09       5.12335588e-07 
      -2.22368071e-08       6.24338753e-09       5.12335581e-07 
      -2.17024825e-08       6.24338754e-09       5.12361032e-07 
       2.27243238e-08       6.59377951e-09       5.43293650e-07 
       2.21782432e-08       6.59377949e-09       5.43267551e-07 
      -2.27260455e-08       6.61987910e-09       5.43267544e-07 
      -2.21799650e-08       6.61987912e-09       5.43293643e-07 
       2.27243238e-08       6.59377951e-09       5.43293650e-07 
       2.21782432e-08       6.59377949e-09       5.43267551e-07 
      -2.27260455e-08       6.61987910e-09       5.43267544e-07 
      -2.21799650e-08       6.61987912e-09       5.43293643e-07 
       2.32003359e-08       6.97769773e-09       5.74890301e-07 
       2.26428165e-08       6.97769771e-09       5.74863552e-07 
      -2.32020847e-08       7.00444604e-09       5.74863545e-07 
      -2.26445653e-08       7.00444606e-09       5.74890293e-07 
       2.32003359e-08       6.97769773e-09       5.74890301e-07 
       2.26428165e-08       6.97769771e-09       5.74863552e-07 
      -2.32020847e-08       7.00444604e-09       5.74863545e-07 
      -2.26445653e-08       7.00444606e-09       5.74890293e-07 
       2.36631488e-08       7.36947042e-09       6.07132829e-07 
       2.30945076e-08       7.36947041e-09       6.07105432e-07 
      -2.36649242e-08       7.39686751e-09       6.07105424e-07 
      -2.30962831e-08       7.39686752e-09       6.07132821e-07 
       2.36631488e-08       7.36947042e-09       6.07132829e-07 
       2.30945076e-08       7.36947041e-09       6.07105432e-07 
      -2.36649242e-08       7.39686751e-09       6.07105424e-07 
      -2.30962831e-08       7.39686752e-09       6.07132821e-07 
       2.41127611e-08       7.76887681e-09       6.40003074e-07 
       2.35333157e-08       7.76887679e-09       6.39975028e-07 
      -2.41145650e-08       7.79692261e-09       6.39975020e-07 
      -2.35351196e-08       7.79692262e-09       6.40003066e-07 
       2.41127611e-08       7.76887681e-09       6.40003074e-07 
       2.35333157e-08       7.76887679e-09       6.39975028e-07 
      -2.41145650e-08       7.79692261e-09       6.39975020e-07 
      -2.35351196e-08       7.79692262e-09       6.40003066e-07 
       2.45491742e-08       8.17569597e-09       6.73482875e-07 
       2.39592417e-08       8.17569595e-09       6.73454180e-07 
      -2.45510061e-08       8.20439053e-09       6.73454172e-07 
      -2.39610736e-08       8.20439054e-09       6.73482867e-07 
       2.45491742e-08       8.17569597e-09       6.73482875e-07 
       2.39592417e-08       8.17569595e-09       6.73454180e-07 
      -2.45510061e-08       8.20439053e-09       6.73454172e-07 
      -2.39610736e-08       8.20439054e-09       6.73482867e-07 
       2.49723873e-08       8.58970708e-09       7.07554071e-07 
       2.43722846e-08       8.58970707e-09       7.07524728e-07 
      -2.49742484e-08       8.61905039e-09       7.07524719e-07 
      -2.43741458e-08       8.61905040e-09       7.07554063e-07 
       2.49723873e-08       8.58970708e-09       7.07554071e-07 
       2.43722846e-08       8.58970707e-09       7.07524728e-07 
      -2.49742484e-08       8.61905039e-09       7.07524719e-07 
      -2.43741458e-08       8.61905040e-09       7.07554063e-07 
       2.53824011e-08       9.01068931e-09       7.42198501e-07 
       2.47724459e-08       9.01068929e-09       7.42168509e-07 
      -2.53842916e-08       9.04068136e-09       7.42168500e-07 
      -2.47743364e-08       9.04068137e-09       7.42198493e-07 
       2.53824011e-08       9.01068931e-09       7.42198501e-07 
       2.47724459e-08       9.01068929e-09       7.42168509e-07 
      -2.53842916e-08       9.04068136e-09       7.42168500e-07 
      -2.47743364e-08       9.04068137e-09       7.42198493e-07 
       2.57792157e-08       9.43842177e-09       7.77398005e-07 
       2.51597245e-08       9.43842174e-09       7.77367364e-07 
      -2.57811350e-08       9.46906256e-09       7.77367355e-07 
      -2.51616439e-08       9.46906258e-09       7.77397996e-07 
       2.57792157e-08       9.43842177e-09       7.77398005e-07 
       2.51597245e-08       9.43842174e-09       7.77367364e-07 