# vtk DataFile Version 2.0
./output/onsasExample_nonLinearCantileverBlade_staitc3D_pitch numElements=10/onsasExample_nonLinearCantileverBlade_staitc3D_pitch numElements=10_0029.vtk
ASCII
DATASET UNSTRUCTURED_GRID

POINTS 800 float
       1.167759e-24      -7.180703e-02      -7.180703e-02 
       1.484473e-24       7.180703e-02      -7.180703e-02 
      -1.167759e-24       7.180703e-02       7.180703e-02 
      -1.484473e-24      -7.180703e-02       7.180703e-02 
       1.000000e-01      -7.180703e-02      -7.180703e-02 
       1.000000e-01       7.180703e-02      -7.180703e-02 
       1.000000e-01       7.180703e-02       7.180703e-02 
       1.000000e-01      -7.180703e-02       7.180703e-02 
       1.000000e-01      -7.180703e-02      -7.180703e-02 
       1.000000e-01       7.180703e-02      -7.180703e-02 
       1.000000e-01       7.180703e-02       7.180703e-02 
       1.000000e-01      -7.180703e-02       7.180703e-02 
       2.000000e-01      -7.180703e-02      -7.180704e-02 
       2.000000e-01       7.180704e-02      -7.180704e-02 
       2.000000e-01       7.180704e-02       7.180703e-02 
       2.000000e-01      -7.180703e-02       7.180703e-02 
       2.000000e-01      -7.180703e-02      -7.180704e-02 
       2.000000e-01       7.180704e-02      -7.180704e-02 
       2.000000e-01       7.180704e-02       7.180703e-02 
       2.000000e-01      -7.180703e-02       7.180703e-02 
       3.000000e-01      -7.180703e-02      -7.180704e-02 
       3.000000e-01       7.180704e-02      -7.180704e-02 
       3.000000e-01       7.180704e-02       7.180702e-02 
       3.000000e-01      -7.180703e-02       7.180702e-02 
       3.000000e-01      -7.180703e-02      -7.180704e-02 
       3.000000e-01       7.180704e-02      -7.180704e-02 
       3.000000e-01       7.180704e-02       7.180702e-02 
       3.000000e-01      -7.180703e-02       7.180702e-02 
       4.000000e-01      -7.180702e-02      -7.180705e-02 
       4.000000e-01       7.180704e-02      -7.180705e-02 
       4.000000e-01       7.180705e-02       7.180702e-02 
       4.000000e-01      -7.180702e-02       7.180702e-02 
       4.000000e-01      -7.180702e-02      -7.180705e-02 
       4.000000e-01       7.180704e-02      -7.180705e-02 
       4.000000e-01       7.180705e-02       7.180702e-02 
       4.000000e-01      -7.180702e-02       7.180702e-02 
       5.000000e-01      -7.180701e-02      -7.180706e-02 
       5.000000e-01       7.180705e-02      -7.180706e-02 
       5.000000e-01       7.180705e-02       7.180701e-02 
       5.000000e-01      -7.180701e-02       7.180701e-02 
       5.000000e-01      -7.180701e-02      -7.180706e-02 
       5.000000e-01       7.180705e-02      -7.180706e-02 
       5.000000e-01       7.180705e-02       7.180701e-02 
       5.000000e-01      -7.180701e-02       7.180701e-02 
       6.000000e-01      -7.180701e-02      -7.180707e-02 
       6.000000e-01       7.180706e-02      -7.180707e-02 
       6.000000e-01       7.180706e-02       7.180700e-02 
       6.000000e-01      -7.180701e-02       7.180700e-02 
       6.000000e-01      -7.180701e-02      -7.180707e-02 
       6.000000e-01       7.180706e-02      -7.180707e-02 
       6.000000e-01       7.180706e-02       7.180700e-02 
       6.000000e-01      -7.180701e-02       7.180700e-02 
       7.000000e-01      -7.180700e-02      -7.180708e-02 
       7.000000e-01       7.180707e-02      -7.180708e-02 
       7.000000e-01       7.180707e-02       7.180698e-02 
       7.000000e-01      -7.180700e-02       7.180698e-02 
       7.000000e-01      -7.180700e-02      -7.180708e-02 
       7.000000e-01       7.180707e-02      -7.180708e-02 
       7.000000e-01       7.180707e-02       7.180698e-02 
       7.000000e-01      -7.180700e-02       7.180698e-02 
       8.000000e-01      -7.180699e-02      -7.180710e-02 
       8.000000e-01       7.180708e-02      -7.180710e-02 
       8.000000e-01       7.180708e-02       7.180697e-02 
       8.000000e-01      -7.180699e-02       7.180697e-02 
       8.000000e-01      -7.180699e-02      -7.180710e-02 
       8.000000e-01       7.180708e-02      -7.180710e-02 
       8.000000e-01       7.180708e-02       7.180697e-02 
       8.000000e-01      -7.180699e-02       7.180697e-02 
       9.000000e-01      -7.180697e-02      -7.180711e-02 
       9.000000e-01       7.180709e-02      -7.180712e-02 
       9.000000e-01       7.180709e-02       7.180695e-02 
       9.000000e-01      -7.180697e-02       7.180695e-02 
       9.000000e-01      -7.180697e-02      -7.180711e-02 
       9.000000e-01       7.180709e-02      -7.180712e-02 
       9.000000e-01       7.180709e-02       7.180695e-02 
       9.000000e-01      -7.180697e-02       7.180695e-02 
       1.000000e+00      -7.180696e-02      -7.180713e-02 
       1.000000e+00       7.180710e-02      -7.180713e-02 
       1.000000e+00       7.180711e-02       7.180693e-02 
       1.000000e+00      -7.180696e-02       7.180693e-02 
       1.000000e+00      -7.180696e-02      -7.180713e-02 
       1.000000e+00       7.180710e-02      -7.180713e-02 
       1.000000e+00       7.180711e-02       7.180693e-02 
       1.000000e+00      -7.180696e-02       7.180693e-02 
       1.100000e+00      -7.180695e-02      -7.180715e-02 
       1.100000e+00       7.180712e-02      -7.180715e-02 
       1.100000e+00       7.180712e-02       7.180691e-02 
       1.100000e+00      -7.180694e-02       7.180691e-02 
       1.100000e+00      -7.180695e-02      -7.180715e-02 
       1.100000e+00       7.180712e-02      -7.180715e-02 
       1.100000e+00       7.180712e-02       7.180691e-02 
       1.100000e+00      -7.180694e-02       7.180691e-02 
       1.200000e+00      -7.180693e-02      -7.180717e-02 
       1.200000e+00       7.180713e-02      -7.180718e-02 
       1.200000e+00       7.180714e-02       7.180689e-02 
       1.200000e+00      -7.180693e-02       7.180689e-02 
       1.200000e+00      -7.180693e-02      -7.180717e-02 
       1.200000e+00       7.180713e-02      -7.180718e-02 
       1.200000e+00       7.180714e-02       7.180689e-02 
       1.200000e+00      -7.180693e-02       7.180689e-02 
       1.300000e+00      -7.180691e-02      -7.180720e-02 
       1.300000e+00       7.180715e-02      -7.180720e-02 
       1.300000e+00       7.180715e-02       7.180687e-02 
       1.300000e+00      -7.180691e-02       7.180687e-02 
       1.300000e+00      -7.180691e-02      -7.180720e-02 
       1.300000e+00       7.180715e-02      -7.180720e-02 
       1.300000e+00       7.180715e-02       7.180687e-02 
       1.300000e+00      -7.180691e-02       7.180687e-02 
       1.400000e+00      -7.180690e-02      -7.180722e-02 
       1.400000e+00       7.180717e-02      -7.180723e-02 
       1.400000e+00       7.180717e-02       7.180684e-02 
       1.400000e+00      -7.180689e-02       7.180684e-02 
       1.400000e+00      -7.180690e-02      -7.180722e-02 
       1.400000e+00       7.180717e-02      -7.180723e-02 
       1.400000e+00       7.180717e-02       7.180684e-02 
       1.400000e+00      -7.180689e-02       7.180684e-02 
       1.500000e+00      -7.180688e-02      -7.180725e-02 
       1.500000e+00       7.180719e-02      -7.180725e-02 
       1.500000e+00       7.180719e-02       7.180681e-02 
       1.500000e+00      -7.180687e-02       7.180682e-02 
       1.500000e+00      -7.180688e-02      -7.180725e-02 
       1.500000e+00       7.180719e-02      -7.180725e-02 
       1.500000e+00       7.180719e-02       7.180681e-02 
       1.500000e+00      -7.180687e-02       7.180682e-02 
       1.600000e+00      -7.180686e-02      -7.180728e-02 
       1.600000e+00       7.180721e-02      -7.180728e-02 
       1.600000e+00       7.180721e-02       7.180679e-02 
       1.600000e+00      -7.180685e-02       7.180679e-02 
       1.600000e+00      -7.180686e-02      -7.180728e-02 
       1.600000e+00       7.180721e-02      -7.180728e-02 
       1.600000e+00       7.180721e-02       7.180679e-02 
       1.600000e+00      -7.180685e-02       7.180679e-02 
       1.700000e+00      -7.180683e-02      -7.180731e-02 
       1.700000e+00       7.180723e-02      -7.180731e-02 
       1.700000e+00       7.180723e-02       7.180676e-02 
       1.700000e+00      -7.180683e-02       7.180676e-02 
       1.700000e+00      -7.180683e-02      -7.180731e-02 
       1.700000e+00       7.180723e-02      -7.180731e-02 
       1.700000e+00       7.180723e-02       7.180676e-02 
       1.700000e+00      -7.180683e-02       7.180676e-02 
       1.800000e+00      -7.180681e-02      -7.180734e-02 
       1.800000e+00       7.180725e-02      -7.180734e-02 
       1.800000e+00       7.180726e-02       7.180672e-02 
       1.800000e+00      -7.180681e-02       7.180673e-02 
       1.800000e+00      -7.180681e-02      -7.180734e-02 
       1.800000e+00       7.180725e-02      -7.180734e-02 
       1.800000e+00       7.180726e-02       7.180672e-02 
       1.800000e+00      -7.180681e-02       7.180673e-02 
       1.900000e+00      -7.180679e-02      -7.180737e-02 
       1.900000e+00       7.180728e-02      -7.180737e-02 
       1.900000e+00       7.180728e-02       7.180669e-02 
       1.900000e+00      -7.180678e-02       7.180670e-02 
       1.900000e+00      -7.180679e-02      -7.180737e-02 
       1.900000e+00       7.180728e-02      -7.180737e-02 
       1.900000e+00       7.180728e-02       7.180669e-02 
       1.900000e+00      -7.180678e-02       7.180670e-02 
       2.000000e+00      -7.180676e-02      -7.180740e-02 
       2.000000e+00       7.180730e-02      -7.180741e-02 
       2.000000e+00       7.180731e-02       7.180666e-02 
       2.000000e+00      -7.180676e-02       7.180666e-02 
       2.000000e+00      -7.180676e-02      -7.180740e-02 
       2.000000e+00       7.180730e-02      -7.180741e-02 
       2.000000e+00       7.180731e-02       7.180666e-02 
       2.000000e+00      -7.180676e-02       7.180666e-02 
       2.100000e+00      -7.180674e-02      -7.180744e-02 
[...]
POINT_DATA       800 
VECTORS Displacements float
       1.16775891e-24       0.00000000e+00       0.00000000e+00 
       1.48447302e-24       1.38777878e-17      -1.38777878e-17 
      -1.16775891e-24       0.00000000e+00       0.00000000e+00 
      -1.48447302e-24      -1.38777878e-17       1.38777878e-17 
      -4.15568982e-10       6.64500038e-10      -9.54141335e-10 
      -2.62024892e-09       6.64500038e-10      -1.16519952e-09 
       4.13706680e-10       8.75558251e-10      -1.16519952e-09 
       2.61838663e-09       8.75558251e-10      -9.54141349e-10 
      -4.15568982e-10       6.64500038e-10      -9.54141335e-10 
      -2.62024892e-09       6.64500038e-10      -1.16519952e-09 
       4.13706680e-10       8.75558251e-10      -1.16519952e-09 
       2.61838663e-09       8.75558251e-10      -9.54141349e-10 
      -8.23171142e-10       2.84939360e-09      -4.00056208e-09 
      -5.19016910e-09       2.84939355e-09      -4.42267836e-09 
       8.19445956e-10       3.27151002e-09      -4.42267846e-09 
       5.18644391e-09       3.27151006e-09      -4.00056217e-09 
      -8.23171142e-10       2.84939360e-09      -4.00056208e-09 
      -5.19016910e-09       2.84939355e-09      -4.42267836e-09 
       8.19445956e-10       3.27151002e-09      -4.42267846e-09 
       5.18644391e-09       3.27151006e-09      -4.00056217e-09 
      -1.22280658e-09       6.52518356e-09      -9.09866996e-09 
      -7.70976050e-09       6.52518344e-09      -9.73184434e-09 
       1.21721777e-09       7.15835823e-09      -9.73184459e-09 
       7.70417169e-09       7.15835835e-09      -9.09867022e-09 
      -1.22280658e-09       6.52518356e-09      -9.09866996e-09 
      -7.70976050e-09       6.52518344e-09      -9.73184434e-09 
       1.21721777e-09       7.15835823e-09      -9.73184459e-09 
       7.70417169e-09       7.15835835e-09      -9.09867022e-09 
      -1.61447522e-09       1.16623729e-08      -1.62078728e-08 
      -1.01790231e-08       1.16623726e-08      -1.70521052e-08 
       1.60702229e-09       1.25066058e-08      -1.70521057e-08 
       1.01715703e-08       1.25066060e-08      -1.62078733e-08 
      -1.61447522e-09       1.16623729e-08      -1.62078728e-08 
      -1.01790231e-08       1.16623726e-08      -1.70521052e-08 
       1.60702229e-09       1.25066058e-08      -1.70521057e-08 
       1.01715703e-08       1.25066060e-08      -1.62078733e-08 
      -1.99817701e-09       1.82314644e-08      -2.52875783e-08 
      -1.25979571e-08       1.82314640e-08      -2.63428687e-08 
       1.98885919e-09       1.92867556e-08      -2.63428695e-08 
       1.25886394e-08       1.92867559e-08      -2.52875790e-08 
      -1.99817701e-09       1.82314644e-08      -2.52875783e-08 
      -1.25979571e-08       1.82314640e-08      -2.63428687e-08 
       1.98885919e-09       1.92867556e-08      -2.63428695e-08 
       1.25886394e-08       1.92867559e-08      -2.52875790e-08 
      -2.37391196e-09       2.62029611e-08      -3.62971943e-08 
      -1.49665623e-08       2.62029606e-08      -3.75635427e-08 
       2.36272890e-09       2.74693105e-08      -3.75635437e-08 
       1.49553792e-08       2.74693110e-08      -3.62971953e-08 
      -2.37391196e-09       2.62029611e-08      -3.62971943e-08 
      -1.49665623e-08       2.62029606e-08      -3.75635427e-08 
       2.36272890e-09       2.74693105e-08      -3.75635437e-08 
       1.49553792e-08       2.74693110e-08      -3.62971953e-08 
      -2.74168011e-09       3.55473659e-08      -4.91961284e-08 
      -1.72848386e-08       3.55473652e-08      -5.06735348e-08 
       2.72863110e-09       3.70247736e-08      -5.06735362e-08 
       1.72717896e-08       3.70247743e-08      -4.91961298e-08 
      -2.74168011e-09       3.55473659e-08      -4.91961284e-08 
      -1.72848386e-08       3.55473652e-08      -5.06735348e-08 
       2.72863110e-09       3.70247736e-08      -5.06735362e-08 
       1.72717896e-08       3.70247743e-08      -4.91961298e-08 
      -3.10148141e-09       4.62351818e-08      -6.39437886e-08 
      -1.95527862e-08       4.62351808e-08      -6.56322528e-08 
       3.08656600e-09       4.79236477e-08      -6.56322546e-08 
       1.95378708e-08       4.79236486e-08      -6.39437904e-08 
      -3.10148141e-09       4.62351818e-08      -6.39437886e-08 
      -1.95527862e-08       4.62351808e-08      -6.56322528e-08 
       3.08656600e-09       4.79236477e-08      -6.56322546e-08 
       1.95378708e-08       4.79236486e-08      -6.39437904e-08 
      -3.45331597e-09       5.82369115e-08      -8.04995825e-08 
      -2.17704050e-08       5.82369103e-08      -8.23991046e-08 
       3.43653328e-09       6.01364357e-08      -8.23991068e-08 
       2.17536223e-08       6.01364368e-08      -8.04995847e-08 
      -3.45331597e-09       5.82369115e-08      -8.04995825e-08 
      -2.17704050e-08       5.82369103e-08      -8.23991046e-08 
       3.43653328e-09       6.01364357e-08      -8.23991068e-08 
       2.17536223e-08       6.01364368e-08      -8.04995847e-08 
      -3.79718357e-09       7.15230580e-08      -9.88229179e-08 
      -2.39376950e-08       7.15230566e-08      -1.00933498e-07 
       3.77853349e-09       7.36336405e-08      -1.00933501e-07 
       2.39190450e-08       7.36336419e-08      -9.88229205e-08 
      -3.79718368e-09       7.15230580e-08      -9.88229179e-08 
      -2.39376950e-08       7.15230566e-08      -1.00933498e-07 
       3.77853349e-09       7.36336405e-08      -1.00933501e-07 
       2.39190447e-08       7.36336419e-08      -9.88229206e-08 
      -4.13317003e-09       8.60757499e-08      -1.18885023e-07 
      -2.60569712e-08       8.60757482e-08      -1.21184444e-07 
       4.11331946e-09       8.83751745e-08      -1.21184448e-07 
       2.60371207e-08       8.83751762e-08      -1.18885026e-07 
      -4.13317003e-09       8.60757499e-08      -1.18885023e-07 
      -2.60569712e-08       8.60757482e-08      -1.21184444e-07 
       4.11331946e-09       8.83751745e-08      -1.21184448e-07 
       2.60371207e-08       8.83751762e-08      -1.18885026e-07 
      -4.46202830e-09       1.01856969e-07      -1.40637757e-07 
      -2.81312167e-08       1.01856967e-07      -1.43126021e-07 
       4.44097625e-09       1.04345236e-07      -1.43126024e-07 
       2.81101646e-08       1.04345238e-07      -1.40637761e-07 
      -4.46202830e-09       1.01856969e-07      -1.40637757e-07 
      -2.81312167e-08       1.01856967e-07      -1.43126021e-07 
       4.44097625e-09       1.04345236e-07      -1.43126024e-07 
       2.81101646e-08       1.04345238e-07      -1.40637761e-07 
      -4.78375894e-09       1.18840324e-07      -1.64044803e-07 
      -3.01604317e-08       1.18840322e-07      -1.66721908e-07 
       4.76150386e-09       1.21517433e-07      -1.66721912e-07 
       3.01381766e-08       1.21517436e-07      -1.64044807e-07 
      -4.78375894e-09       1.18840324e-07      -1.64044803e-07 
      -3.01604317e-08       1.18840322e-07      -1.66721908e-07 
       4.76150386e-09       1.21517433e-07      -1.66721912e-07 
       3.01381766e-08       1.21517436e-07      -1.64044807e-07 
      -5.09836173e-09       1.36999423e-07      -1.89069839e-07 
      -3.21446161e-08       1.36999420e-07      -1.91935785e-07 
       5.07490250e-09       1.39865374e-07      -1.91935790e-07 
       3.21211566e-08       1.39865376e-07      -1.89069844e-07 
      -5.09836173e-09       1.36999423e-07      -1.89069839e-07 
      -3.21446161e-08       1.36999420e-07      -1.91935785e-07 
       5.07490250e-09       1.39865374e-07      -1.91935790e-07 
       3.21211566e-08       1.39865376e-07      -1.89069844e-07 
      -5.40583711e-09       1.56307872e-07      -2.15676547e-07 
      -3.40837700e-08       1.56307869e-07      -2.18731335e-07 
       5.38117151e-09       1.59362665e-07      -2.18731341e-07 
       3.40591046e-08       1.59362668e-07      -2.15676552e-07 
      -5.40583711e-09       1.56307872e-07      -2.15676547e-07 
      -3.40837700e-08       1.56307869e-07      -2.18731335e-07 
       5.38117151e-09       1.59362665e-07      -2.18731341e-07 
       3.40591046e-08       1.59362668e-07      -2.15676552e-07 
      -5.70618441e-09       1.76739281e-07      -2.43828607e-07 
      -3.59778931e-08       1.76739277e-07      -2.47072237e-07 
       5.68031178e-09       1.79982916e-07      -2.47072243e-07 
       3.59520207e-08       1.79982919e-07      -2.43828613e-07 
      -5.70618441e-09       1.76739281e-07      -2.43828607e-07 
      -3.59778931e-08       1.76739277e-07      -2.47072237e-07 
       5.68031178e-09       1.79982916e-07      -2.47072243e-07 
       3.59520207e-08       1.79982919e-07      -2.43828613e-07 
      -5.99940386e-09       1.98267256e-07      -2.73489701e-07 
      -3.78269858e-08       1.98267253e-07      -2.76922172e-07 
       5.97232286e-09       2.01699734e-07      -2.76922179e-07 
       3.77999052e-08       2.01699737e-07      -2.73489707e-07 
      -5.99940386e-09       1.98267256e-07      -2.73489701e-07 
      -3.78269858e-08       1.98267253e-07      -2.76922172e-07 
       5.97232286e-09       2.01699734e-07      -2.76922179e-07 
       3.77999052e-08       2.01699737e-07      -2.73489707e-07 
      -6.28549546e-09       2.20865407e-07      -3.04623508e-07 
      -3.96310478e-08       2.20865403e-07      -3.08244821e-07 
       6.25720520e-09       2.24486726e-07      -3.08244828e-07 
       3.96027575e-08       2.24486730e-07      -3.04623515e-07 
      -6.28549546e-09       2.20865407e-07      -3.04623508e-07 
      -3.96310478e-08       2.20865403e-07      -3.08244821e-07 
       6.25720520e-09       2.24486726e-07      -3.08244828e-07 
       3.96027575e-08       2.24486730e-07      -3.04623515e-07 
      -6.56445920e-09       2.44507340e-07      -3.37193709e-07 
      -4.13900789e-08       2.44507335e-07      -3.41003864e-07 
       6.53495835e-09       2.48317502e-07      -3.41003872e-07 
       4.13605781e-08       2.48317506e-07      -3.37193717e-07 
      -6.56445920e-09       2.44507340e-07      -3.37193709e-07 
      -4.13900789e-08       2.44507335e-07      -3.41003864e-07 
       6.53495835e-09       2.48317502e-07      -3.41003872e-07 
       4.13605781e-08       2.48317506e-07      -3.37193717e-07 
      -6.83629509e-09       2.69166663e-07      -3.71163985e-07 
      -4.31040796e-08       2.69166659e-07      -3.75162982e-07 
       6.80558232e-09       2.73165668e-07      -3.75162991e-07 
       4.30733667e-08       2.73165672e-07      -3.71163994e-07 
      -6.83629509e-09       2.69166663e-07      -3.71163985e-07 
      -4.31040796e-08       2.69166659e-07      -3.75162982e-07 
       6.80558232e-09       2.73165668e-07      -3.75162991e-07 
       4.30733667e-08       2.73165672e-07      -3.71163994e-07 
      -7.10118764e-09       2.94828611e-07      -4.06509838e-07 
      -4.47754638e-08       2.94828606e-07      -4.10675459e-07 
       7.06973147e-09       2.98994241e-07      -4.10675469e-07 
       4.47440072e-08       2.98994246e-07      -4.06509847e-07 
      -7.10118764e-09       2.94828611e-07      -4.06509838e-07 
      -4.47754638e-08       2.94828606e-07      -4.10675459e-07 
       7.06973147e-09       2.98994241e-07      -4.10675469e-07 
       4.47440072e-08       2.98994246e-07      -4.06509847e-07 
      -7.35979144e-09       3.21458270e-07      -4.43187399e-07 
      -4.64071150e-08       3.21458265e-07      -4.47519646e-07 
       7.32758965e-09       3.25790526e-07      -4.47519656e-07 
       4.63749137e-08       3.25790532e-07      -4.43187409e-07 
      -7.35979144e-09       3.21458270e-07      -4.43187399e-07 
      -4.64071150e-08       3.21458265e-07      -4.47519646e-07 
       7.32758965e-09       3.25790526e-07      -4.47519656e-07 
       4.63749137e-08       3.25790532e-07      -4.43187409e-07 
      -7.61210561e-09       3.49032354e-07      -4.81164623e-07 
      -4.79990332e-08       3.49032348e-07      -4.85663495e-07 
       7.57915775e-09       3.53531235e-07      -4.85663506e-07 
       4.79660858e-08       3.53531241e-07      -4.81164634e-07 
      -7.61210561e-09       3.49032354e-07      -4.81164623e-07 
      -4.79990332e-08       3.49032348e-07      -4.85663495e-07 
       7.57915775e-09       3.53531235e-07      -4.85663506e-07 
       4.79660858e-08       3.53531241e-07      -4.81164634e-07 
      -7.85813103e-09       3.77527574e-07      -5.20409463e-07 
      -4.95512196e-08       3.77527568e-07      -5.25074960e-07 
       7.82443488e-09       3.82193081e-07      -5.25074971e-07 
       4.95175234e-08       3.82193087e-07      -5.20409474e-07 
      -7.85813103e-09       3.77527574e-07      -5.20409463e-07 
      -4.95512196e-08       3.77527568e-07      -5.25074960e-07 
       7.82443488e-09       3.82193081e-07      -5.25074971e-07 
       4.95175234e-08       3.82193087e-07      -5.20409474e-07 
      -8.09786771e-09       4.06920644e-07      -5.60889872e-07 
      -5.10636728e-08       4.06920637e-07      -5.65721995e-07 
       8.06342149e-09       4.11752777e-07      -5.65722007e-07 
       5.10292271e-08       4.11752783e-07      -5.60889885e-07 
      -8.09786771e-09       4.06920644e-07      -5.60889872e-07 
      -5.10636728e-08       4.06920637e-07      -5.65721995e-07 
       8.06342149e-09       4.11752777e-07      -5.65722007e-07 
       5.10292271e-08       4.11752783e-07      -5.60889885e-07 
      -8.33131519e-09       4.37188276e-07      -6.02573805e-07 
      -5.25363939e-08       4.37188269e-07      -6.07572552e-07 
       8.29611757e-09       4.42187035e-07      -6.07572565e-07 
       5.25011958e-08       4.42187042e-07      -6.02573818e-07 
      -8.33131519e-09       4.37188276e-07      -6.02573805e-07 
      -5.25363939e-08       4.37188269e-07      -6.07572552e-07 
       8.29611757e-09       4.42187035e-07      -6.07572565e-07 
       5.25011958e-08       4.42187042e-07      -6.02573818e-07 
      -8.55847393e-09       4.68307184e-07      -6.45429214e-07 
      -5.39693819e-08       4.68307177e-07      -6.50594587e-07 
       8.52252313e-09       4.73472569e-07      -6.50594601e-07 
       5.39334311e-08       4.73472576e-07      -6.45429228e-07 
      -8.55847393e-09       4.68307184e-07      -6.45429214e-07 
      -5.39693819e-08       4.68307177e-07      -6.50594587e-07 
       8.52252313e-09       4.73472569e-07      -6.50594601e-07 
       5.39334311e-08       4.73472576e-07      -6.45429228e-07 
      -8.77934259e-09       5.00254080e-07      -6.89424054e-07 
      -5.53626363e-08       5.00254073e-07      -6.94756051e-07 
       8.74263861e-09       5.05586091e-07      -6.94756066e-07 
       5.53259323e-08       5.05586099e-07      -6.89424068e-07 
      -8.77934259e-09       5.00254080e-07      -6.89424054e-07 
      -5.53626363e-08       5.00254073e-07      -6.94756051e-07 
       8.74263861e-09       5.05586091e-07      -6.94756066e-07 
       5.53259323e-08       5.05586099e-07      -6.89424068e-07 
      -8.99392294e-09       5.33005678e-07      -7.34526277e-07 
      -5.67161593e-08       5.33005669e-07      -7.40024900e-07 
       8.95646313e-09       5.38504314e-07      -7.40024915e-07 
       5.66786991e-08       5.38504322e-07      -7.34526292e-07 
      -8.99392294e-09       5.33005678e-07      -7.34526277e-07 
      -5.67161593e-08       5.33005669e-07      -7.40024900e-07 
       8.95646313e-09       5.38504314e-07      -7.40024915e-07 
       5.66786991e-08       5.38504322e-07      -7.34526292e-07 
      -9.20221410e-09       5.66538689e-07      -7.80703837e-07 
      -5.80299488e-08       5.66538680e-07      -7.86369085e-07 
       9.16399667e-09       5.72203951e-07      -7.86369101e-07 
       5.79917314e-08       5.72203960e-07      -7.80703853e-07 
      -9.20221410e-09       5.66538689e-07      -7.80703837e-07 
      -5.80299488e-08       5.66538680e-07      -7.86369085e-07 
       9.16399667e-09       5.72203951e-07      -7.86369101e-07 
       5.79917314e-08       5.72203960e-07      -7.80703853e-07 
      -9.40447764e-09       6.00841452e-07      -8.27936508e-07 
      -5.93064970e-08       6.00841444e-07      -8.33746165e-07 
       9.36581701e-09       6.06651124e-07      -8.33746181e-07 
       5.92678364e-08       6.06651133e-07      -8.27936525e-07 
      -9.40447764e-09       6.00841452e-07      -8.27936508e-07 
      -5.93064970e-08       6.00841444e-07      -8.33746165e-07 
       9.36581701e-09       6.06651124e-07      -8.33746181e-07 
       5.92678364e-08       6.06651133e-07      -8.27936525e-07 
      -9.60129132e-09       6.35882161e-07      -8.76184696e-07 
      -6.05486106e-08       6.35882152e-07      -8.82138762e-07 
       9.56218571e-09       6.41836242e-07      -8.82138779e-07 
       6.05095050e-08       6.41836251e-07      -8.76184714e-07 
      -9.60129132e-09       6.35882161e-07      -8.76184696e-07 
      -6.05486106e-08       6.35882152e-07      -8.82138762e-07 
       9.56218571e-09       6.41836242e-07      -8.82138779e-07 
       6.05095050e-08       6.41836251e-07      -8.76184714e-07 
      -9.79265380e-09       6.71640631e-07      -9.25420628e-07 
      -6.17562885e-08       6.71640622e-07      -9.31519102e-07 
       9.75310233e-09       6.77739121e-07      -9.31519120e-07 
       6.17167375e-08       6.77739131e-07      -9.25420646e-07 
      -9.79265380e-09       6.71640631e-07      -9.25420628e-07 
      -6.17562885e-08       6.71640622e-07      -9.31519102e-07 
       9.75310233e-09       6.77739121e-07      -9.31519120e-07 
       6.17167375e-08       6.77739131e-07      -9.25420646e-07 
      -9.97856642e-09       7.08096682e-07      -9.75616530e-07 
      -6.29295323e-08       7.08096672e-07      -9.81859412e-07 
       9.93856686e-09       7.14339581e-07      -9.81859431e-07 
       6.28895327e-08       7.14339591e-07      -9.75616548e-07 
      -9.97856642e-09       7.08096682e-07      -9.75616530e-07 
      -6.29295323e-08       7.08096672e-07      -9.81859412e-07 
       9.93856686e-09       7.14339581e-07      -9.81859431e-07 
       6.28895327e-08       7.14339591e-07      -9.75616548e-07 
      -1.01590283e-08       7.45230130e-07      -1.02674463e-06 
      -6.40683409e-08       7.45230120e-07      -1.03313192e-06 
       1.01185798e-08       7.51617439e-07      -1.03313194e-06 
       6.40278923e-08       7.51617449e-07      -1.02674465e-06 
      -1.01590283e-08       7.45230130e-07      -1.02674463e-06 
      -6.40683409e-08       7.45230120e-07      -1.03313192e-06 
       1.01185798e-08       7.51617439e-07      -1.03313194e-06 
       6.40278923e-08       7.51617449e-07      -1.02674465e-06 
      -1.03340403e-08       7.83020795e-07      -1.07877715e-06 
      -6.51727148e-08       7.83020784e-07      -1.08530885e-06 
       1.02931401e-08       7.89552513e-07      -1.08530887e-06 
       6.51318146e-08       7.89552523e-07      -1.07877717e-06 
      -1.03340403e-08       7.83020795e-07      -1.07877715e-06 
      -6.51727148e-08       7.83020784e-07      -1.08530885e-06 
       1.02931401e-08       7.89552513e-07      -1.08530887e-06 
       6.51318146e-08       7.89552523e-07      -1.07877717e-06 
      -1.05036015e-08       8.21448492e-07      -1.13168632e-06 
      -6.62426536e-08       8.21448481e-07      -1.13836243e-06 
       1.04622493e-08       8.28124619e-07      -1.13836245e-06 
       6.62013013e-08       8.28124630e-07      -1.13168634e-06 
      -1.05036015e-08       8.21448492e-07      -1.13168632e-06 
      -6.62426536e-08       8.21448481e-07      -1.13836243e-06 
       1.04622493e-08       8.28124619e-07      -1.13836245e-06 
       6.62013013e-08       8.28124630e-07      -1.13168634e-06 
      -1.06677116e-08       8.60493041e-07      -1.18544436e-06 
      -6.72781564e-08       8.60493030e-07      -1.19226488e-06 
       1.06259068e-08       8.67313578e-07      -1.19226490e-06 
       6.72363520e-08       8.67313589e-07      -1.18544438e-06 
      -1.06677116e-08       8.60493041e-07      -1.18544436e-06 
      -6.72781564e-08       8.60493030e-07      -1.19226488e-06 