# vtk DataFile Version 2.0
./output/onsasExample_nonLinearCantileverBlade_staitc3D_pitch numElements=10/onsasExample_nonLinearCantileverBlade_staitc3D_pitch numElements=10_0005.vtk
ASCII
DATASET UNSTRUCTURED_GRID

POINTS 800 float
       6.768175e-26      -7.180703e-02      -7.180703e-02 
       2.898263e-26       7.180703e-02      -7.180703e-02 
      -6.768175e-26       7.180703e-02       7.180703e-02 
      -2.898263e-26      -7.180703e-02       7.180703e-02 
       1.000000e-01      -7.180703e-02      -7.180703e-02 
       1.000000e-01       7.180703e-02      -7.180703e-02 
       1.000000e-01       7.180703e-02       7.180703e-02 
       1.000000e-01      -7.180703e-02       7.180703e-02 
       1.000000e-01      -7.180703e-02      -7.180703e-02 
       1.000000e-01       7.180703e-02      -7.180703e-02 
       1.000000e-01       7.180703e-02       7.180703e-02 
       1.000000e-01      -7.180703e-02       7.180703e-02 
       2.000000e-01      -7.180703e-02      -7.180703e-02 
       2.000000e-01       7.180703e-02      -7.180703e-02 
       2.000000e-01       7.180703e-02       7.180703e-02 
       2.000000e-01      -7.180703e-02       7.180703e-02 
       2.000000e-01      -7.180703e-02      -7.180703e-02 
       2.000000e-01       7.180703e-02      -7.180703e-02 
       2.000000e-01       7.180703e-02       7.180703e-02 
       2.000000e-01      -7.180703e-02       7.180703e-02 
       3.000000e-01      -7.180703e-02      -7.180703e-02 
       3.000000e-01       7.180703e-02      -7.180703e-02 
       3.000000e-01       7.180703e-02       7.180703e-02 
       3.000000e-01      -7.180703e-02       7.180703e-02 
       3.000000e-01      -7.180703e-02      -7.180703e-02 
       3.000000e-01       7.180703e-02      -7.180703e-02 
       3.000000e-01       7.180703e-02       7.180703e-02 
       3.000000e-01      -7.180703e-02       7.180703e-02 
       4.000000e-01      -7.180703e-02      -7.180703e-02 
       4.000000e-01       7.180703e-02      -7.180703e-02 
       4.000000e-01       7.180703e-02       7.180704e-02 
       4.000000e-01      -7.180703e-02       7.180704e-02 
       4.000000e-01      -7.180703e-02      -7.180703e-02 
       4.000000e-01       7.180703e-02      -7.180703e-02 
       4.000000e-01       7.180703e-02       7.180704e-02 
       4.000000e-01      -7.180703e-02       7.180704e-02 
       5.000000e-01      -7.180703e-02      -7.180703e-02 
       5.000000e-01       7.180703e-02      -7.180703e-02 
       5.000000e-01       7.180703e-02       7.180704e-02 
       5.000000e-01      -7.180703e-02       7.180704e-02 
       5.000000e-01      -7.180703e-02      -7.180703e-02 
       5.000000e-01       7.180703e-02      -7.180703e-02 
       5.000000e-01       7.180703e-02       7.180704e-02 
       5.000000e-01      -7.180703e-02       7.180704e-02 
       6.000000e-01      -7.180703e-02      -7.180703e-02 
       6.000000e-01       7.180703e-02      -7.180703e-02 
       6.000000e-01       7.180703e-02       7.180704e-02 
       6.000000e-01      -7.180703e-02       7.180704e-02 
       6.000000e-01      -7.180703e-02      -7.180703e-02 
       6.000000e-01       7.180703e-02      -7.180703e-02 
       6.000000e-01       7.180703e-02       7.180704e-02 
       6.000000e-01      -7.180703e-02       7.180704e-02 
       7.000000e-01      -7.180703e-02      -7.180702e-02 
       7.000000e-01       7.180703e-02      -7.180702e-02 
       7.000000e-01       7.180703e-02       7.180704e-02 
       7.000000e-01      -7.180703e-02       7.180704e-02 
       7.000000e-01      -7.180703e-02      -7.180702e-02 
       7.000000e-01       7.180703e-02      -7.180702e-02 
       7.000000e-01       7.180703e-02       7.180704e-02 
       7.000000e-01      -7.180703e-02       7.180704e-02 
       8.000000e-01      -7.180703e-02      -7.180702e-02 
       8.000000e-01       7.180703e-02      -7.180702e-02 
       8.000000e-01       7.180703e-02       7.180705e-02 
       8.000000e-01      -7.180703e-02       7.180705e-02 
       8.000000e-01      -7.180703e-02      -7.180702e-02 
       8.000000e-01       7.180703e-02      -7.180702e-02 
       8.000000e-01       7.180703e-02       7.180705e-02 
       8.000000e-01      -7.180703e-02       7.180705e-02 
       9.000000e-01      -7.180703e-02      -7.180702e-02 
       9.000000e-01       7.180703e-02      -7.180702e-02 
       9.000000e-01       7.180703e-02       7.180705e-02 
       9.000000e-01      -7.180703e-02       7.180705e-02 
       9.000000e-01      -7.180703e-02      -7.180702e-02 
       9.000000e-01       7.180703e-02      -7.180702e-02 
       9.000000e-01       7.180703e-02       7.180705e-02 
       9.000000e-01      -7.180703e-02       7.180705e-02 
       1.000000e+00      -7.180703e-02      -7.180701e-02 
       1.000000e+00       7.180703e-02      -7.180701e-02 
       1.000000e+00       7.180703e-02       7.180705e-02 
       1.000000e+00      -7.180703e-02       7.180705e-02 
       1.000000e+00      -7.180703e-02      -7.180701e-02 
       1.000000e+00       7.180703e-02      -7.180701e-02 
       1.000000e+00       7.180703e-02       7.180705e-02 
       1.000000e+00      -7.180703e-02       7.180705e-02 
       1.100000e+00      -7.180703e-02      -7.180701e-02 
       1.100000e+00       7.180703e-02      -7.180701e-02 
       1.100000e+00       7.180703e-02       7.180706e-02 
       1.100000e+00      -7.180703e-02       7.180706e-02 
       1.100000e+00      -7.180703e-02      -7.180701e-02 
       1.100000e+00       7.180703e-02      -7.180701e-02 
       1.100000e+00       7.180703e-02       7.180706e-02 
       1.100000e+00      -7.180703e-02       7.180706e-02 
       1.200000e+00      -7.180703e-02      -7.180700e-02 
       1.200000e+00       7.180703e-02      -7.180700e-02 
       1.200000e+00       7.180703e-02       7.180706e-02 
       1.200000e+00      -7.180703e-02       7.180706e-02 
       1.200000e+00      -7.180703e-02      -7.180700e-02 
       1.200000e+00       7.180703e-02      -7.180700e-02 
       1.200000e+00       7.180703e-02       7.180706e-02 
       1.200000e+00      -7.180703e-02       7.180706e-02 
       1.300000e+00      -7.180703e-02      -7.180700e-02 
       1.300000e+00       7.180703e-02      -7.180700e-02 
       1.300000e+00       7.180703e-02       7.180707e-02 
       1.300000e+00      -7.180703e-02       7.180707e-02 
       1.300000e+00      -7.180703e-02      -7.180700e-02 
       1.300000e+00       7.180703e-02      -7.180700e-02 
       1.300000e+00       7.180703e-02       7.180707e-02 
       1.300000e+00      -7.180703e-02       7.180707e-02 
       1.400000e+00      -7.180703e-02      -7.180699e-02 
       1.400000e+00       7.180703e-02      -7.180699e-02 
       1.400000e+00       7.180703e-02       7.180707e-02 
       1.400000e+00      -7.180703e-02       7.180707e-02 
       1.400000e+00      -7.180703e-02      -7.180699e-02 
       1.400000e+00       7.180703e-02      -7.180699e-02 
       1.400000e+00       7.180703e-02       7.180707e-02 
       1.400000e+00      -7.180703e-02       7.180707e-02 
       1.500000e+00      -7.180703e-02      -7.180699e-02 
       1.500000e+00       7.180703e-02      -7.180699e-02 
       1.500000e+00       7.180703e-02       7.180708e-02 
       1.500000e+00      -7.180703e-02       7.180708e-02 
       1.500000e+00      -7.180703e-02      -7.180699e-02 
       1.500000e+00       7.180703e-02      -7.180699e-02 
       1.500000e+00       7.180703e-02       7.180708e-02 
       1.500000e+00      -7.180703e-02       7.180708e-02 
       1.600000e+00      -7.180703e-02      -7.180698e-02 
       1.600000e+00       7.180703e-02      -7.180698e-02 
       1.600000e+00       7.180703e-02       7.180708e-02 
       1.600000e+00      -7.180703e-02       7.180708e-02 
       1.600000e+00      -7.180703e-02      -7.180698e-02 
       1.600000e+00       7.180703e-02      -7.180698e-02 
       1.600000e+00       7.180703e-02       7.180708e-02 
       1.600000e+00      -7.180703e-02       7.180708e-02 
       1.700000e+00      -7.180703e-02      -7.180698e-02 
       1.700000e+00       7.180703e-02      -7.180698e-02 
       1.700000e+00       7.180703e-02       7.180709e-02 
       1.700000e+00      -7.180703e-02       7.180709e-02 
       1.700000e+00      -7.180703e-02      -7.180698e-02 
       1.700000e+00       7.180703e-02      -7.180698e-02 
       1.700000e+00       7.180703e-02       7.180709e-02 
       1.700000e+00      -7.180703e-02       7.180709e-02 
       1.800000e+00      -7.180703e-02      -7.180697e-02 
       1.800000e+00       7.180703e-02      -7.180697e-02 
       1.800000e+00       7.180703e-02       7.180709e-02 
       1.800000e+00      -7.180703e-02       7.180709e-02 
       1.800000e+00      -7.180703e-02      -7.180697e-02 
       1.800000e+00       7.180703e-02      -7.180697e-02 
       1.800000e+00       7.180703e-02       7.180709e-02 
       1.800000e+00      -7.180703e-02       7.180709e-02 
       1.900000e+00      -7.180703e-02      -7.180696e-02 
       1.900000e+00       7.180703e-02      -7.180696e-02 
       1.900000e+00       7.180703e-02       7.180710e-02 
       1.900000e+00      -7.180703e-02       7.180710e-02 
       1.900000e+00      -7.180703e-02      -7.180696e-02 
       1.900000e+00       7.180703e-02      -7.180696e-02 
       1.900000e+00       7.180703e-02       7.180710e-02 
       1.900000e+00      -7.180703e-02       7.180710e-02 
       2.000000e+00      -7.180703e-02      -7.180696e-02 
       2.000000e+00       7.180703e-02      -7.180696e-02 
       2.000000e+00       7.180703e-02       7.180711e-02 
       2.000000e+00      -7.180703e-02       7.180711e-02 
       2.000000e+00      -7.180703e-02      -7.180696e-02 
       2.000000e+00       7.180703e-02      -7.180696e-02 
       2.000000e+00       7.180703e-02       7.180711e-02 
       2.000000e+00      -7.180703e-02       7.180711e-02 
       2.100000e+00      -7.180703e-02      -7.180695e-02 
[...]
POINT_DATA       800 
VECTORS Displacements float
       6.76817460e-26       0.00000000e+00       0.00000000e+00 
       2.89826346e-26       0.00000000e+00       1.38777878e-17 
      -6.76817460e-26       0.00000000e+00       0.00000000e+00 
      -2.89826346e-26       0.00000000e+00      -1.38777878e-17 
       3.07428666e-10       1.41033019e-12       2.13343634e-10 
       3.02900066e-10       1.41033019e-12       2.13000867e-10 
      -3.07436035e-10       1.75308379e-12       2.13000867e-10 
      -3.02907435e-10       1.75308379e-12       2.13343634e-10 
       3.07428666e-10       1.41033019e-12       2.13343634e-10 
       3.02900066e-10       1.41033019e-12       2.13000867e-10 
      -3.07436035e-10       1.75308379e-12       2.13000867e-10 
      -3.02907435e-10       1.75308379e-12       2.13343634e-10 
       6.08950168e-10       5.94366223e-12       8.47587847e-10 
       5.99979955e-10       5.94366223e-12       8.46902298e-10 
      -6.08964906e-10       6.62919719e-12       8.46902284e-10 
      -5.99994693e-10       6.62919719e-12       8.47587819e-10 
       6.08950168e-10       5.94366223e-12       8.47587847e-10 
       5.99979955e-10       5.94366223e-12       8.46902298e-10 
      -6.08964906e-10       6.62919719e-12       8.46902284e-10 
      -5.99994693e-10       6.62919719e-12       8.47587819e-10 
       9.04564479e-10       1.35394196e-11       1.89456674e-09 
       8.91239693e-10       1.35394196e-11       1.89353841e-09 
      -9.04586628e-10       1.45677359e-11       1.89353841e-09 
      -8.91261842e-10       1.45677359e-11       1.89456673e-09 
       9.04564479e-10       1.35394196e-11       1.89456674e-09 
       8.91239693e-10       1.35394196e-11       1.89353841e-09 
      -9.04586628e-10       1.45677359e-11       1.89353841e-09 
      -8.91261842e-10       1.45677359e-11       1.89456673e-09 
       1.19427157e-09       2.41370535e-11       3.34611447e-09 
       1.17667925e-09       2.41370535e-11       3.34474339e-09 
      -1.19430110e-09       2.55081234e-11       3.34474337e-09 
      -1.17670879e-09       2.55081234e-11       3.34611444e-09 
       1.19427157e-09       2.41370535e-11       3.34611447e-09 
       1.17667925e-09       2.41370535e-11       3.34474339e-09 
      -1.19430110e-09       2.55081234e-11       3.34474337e-09 
      -1.17670879e-09       2.55081234e-11       3.34611444e-09 
       1.47807144e-09       3.76759041e-11       5.19406518e-09 
       1.45629864e-09       3.76759041e-11       5.19235131e-09 
      -1.47810847e-09       3.93897553e-11       5.19235129e-09 
      -1.45633555e-09       3.93897553e-11       5.19406514e-09 
       1.47807144e-09       3.76759041e-11       5.19406518e-09 
       1.45629864e-09       3.76759041e-11       5.19235131e-09 
      -1.47810847e-09       3.93897553e-11       5.19235129e-09 
      -1.45633555e-09       3.93897553e-11       5.19406514e-09 
       1.75596415e-09       5.40954087e-11       7.43025295e-09 
       1.73009784e-09       5.40954087e-11       7.42819631e-09 
      -1.75600856e-09       5.61520414e-11       7.42819627e-09 
      -1.73014225e-09       5.61520414e-11       7.43025290e-09 
       1.75596415e-09       5.40954087e-11       7.43025295e-09 
       1.73009784e-09       5.40954087e-11       7.42819631e-09 
      -1.75600856e-09       5.61520414e-11       7.42819627e-09 
      -1.73014225e-09       5.61520414e-11       7.43025290e-09 
       2.02794981e-09       7.33350047e-11       1.00465119e-08 
       1.99807693e-09       7.33350047e-11       1.00441125e-08 
      -2.02800154e-09       7.57343910e-11       1.00441125e-08 
      -1.99812866e-09       7.57343910e-11       1.00465119e-08 
       2.02794981e-09       7.33350047e-11       1.00465119e-08 
       1.99807693e-09       7.33350047e-11       1.00441125e-08 
      -2.02800154e-09       7.57343910e-11       1.00441125e-08 
      -1.99812866e-09       7.57343910e-11       1.00465119e-08 
       2.29402808e-09       9.53340740e-11       1.30346763e-08 
       2.26023578e-09       9.53340740e-11       1.30319341e-08 
      -2.29408748e-09       9.80762416e-11       1.30319340e-08 
      -2.26029517e-09       9.80762416e-11       1.30346762e-08 
       2.29402808e-09       9.53340740e-11       1.30346763e-08 
       2.26023578e-09       9.53340740e-11       1.30319341e-08 
      -2.29408748e-09       9.80762416e-11       1.30319340e-08 
      -2.26029517e-09       9.80762416e-11       1.30346762e-08 
       2.55419919e-09       1.20032026e-10       1.63865801e-08 
       2.51657439e-09       1.20032026e-10       1.63834951e-08 
      -2.55426624e-09       1.23116975e-10       1.63834950e-08 
      -2.51664145e-09       1.23116975e-10       1.63865800e-08 
       2.55419919e-09       1.20032026e-10       1.63865801e-08 
       2.51657439e-09       1.20032026e-10       1.63834951e-08 
      -2.55426624e-09       1.23116975e-10       1.63834950e-08 
      -2.51664145e-09       1.23116975e-10       1.63865800e-08 
       2.80846346e-09       1.47368312e-10       2.00940575e-08 
       2.76709300e-09       1.47368312e-10       2.00906297e-08 
      -2.80853762e-09       1.50796015e-10       2.00906296e-08 
      -2.76716738e-09       1.50796015e-10       2.00940573e-08 
       2.80846324e-09       1.47368326e-10       2.00940575e-08 
       2.76709300e-09       1.47368298e-10       2.00906297e-08 
      -2.80853762e-09       1.50796001e-10       2.00906296e-08 
      -2.76716738e-09       1.50796028e-10       2.00940573e-08 
       3.05713233e-09       1.77301396e-10       2.41490678e-08 
       3.01209879e-09       1.77301382e-10       2.41453334e-08 
      -3.05721159e-09       1.81035784e-10       2.41453332e-08 
      -3.01217828e-09       1.81035797e-10       2.41490677e-08 
       3.05713233e-09       1.77301396e-10       2.41490678e-08 
       3.01209879e-09       1.77301382e-10       2.41453334e-08 
      -3.05721159e-09       1.81035784e-10       2.41453332e-08 
      -3.01217828e-09       1.81035797e-10       2.41490677e-08 
       3.30051608e-09       2.09757975e-10       2.85441795e-08 
       3.25189742e-09       2.09757961e-10       2.85401384e-08 
      -3.30060002e-09       2.13799062e-10       2.85401383e-08 
      -3.25198157e-09       2.13799076e-10       2.85441794e-08 
       3.30051608e-09       2.09757975e-10       2.85441795e-08 
       3.25189742e-09       2.09757961e-10       2.85401384e-08 
      -3.30060002e-09       2.13799062e-10       2.85401383e-08 
      -3.25198157e-09       2.13799076e-10       2.85441794e-08 
       3.53861429e-09       2.44683843e-10       3.32720864e-08 
       3.48648843e-09       2.44683829e-10       3.32677386e-08 
      -3.53870333e-09       2.49031629e-10       3.32677384e-08 
      -3.48657747e-09       2.49031643e-10       3.32720863e-08 
       3.53861429e-09       2.44683843e-10       3.32720864e-08 
       3.48648843e-09       2.44683829e-10       3.32677386e-08 
      -3.53870333e-09       2.49031629e-10       3.32677384e-08 
      -3.48657747e-09       2.49031643e-10       3.32720863e-08 
       3.77142717e-09       2.82024806e-10       3.83254821e-08 
       3.71587183e-09       2.82024792e-10       3.83208276e-08 
      -3.77152110e-09       2.86679264e-10       3.83208274e-08 
      -3.71596576e-09       2.86679278e-10       3.83254819e-08 
       3.77142717e-09       2.82024806e-10       3.83254821e-08 
       3.71587183e-09       2.82024792e-10       3.83208276e-08 
      -3.77152110e-09       2.86679264e-10       3.83208274e-08 
      -3.71596576e-09       2.86679278e-10       3.83254819e-08 
       3.99895450e-09       3.21726604e-10       4.36970602e-08 
       3.94004762e-09       3.21726590e-10       4.36920990e-08 
      -3.99905375e-09       3.26687760e-10       4.36920988e-08 
      -3.94014688e-09       3.26687774e-10       4.36970600e-08 
       3.99895450e-09       3.21726604e-10       4.36970602e-08 
       3.94004762e-09       3.21726590e-10       4.36920990e-08 
      -3.99905375e-09       3.26687760e-10       4.36920988e-08 
      -3.94014688e-09       3.26687774e-10       4.36970600e-08 
       4.22119673e-09       3.63735084e-10       4.93795146e-08 
       4.15901602e-09       3.63735070e-10       4.93742467e-08 
      -4.22130086e-09       3.69002939e-10       4.93742465e-08 
      -4.15912016e-09       3.69002953e-10       4.93795144e-08 
       4.22119673e-09       3.63735084e-10       4.93795146e-08 
       4.15901602e-09       3.63735070e-10       4.93742467e-08 
      -4.22130086e-09       3.69002939e-10       4.93742465e-08 
      -4.15912016e-09       3.69002953e-10       4.93795144e-08 
       4.43815362e-09       4.07996012e-10       5.53655388e-08 
       4.37277703e-09       4.07995984e-10       5.53599643e-08 
      -4.43826242e-09       4.13570525e-10       5.53599640e-08 
      -4.37288583e-09       4.13570553e-10       5.53655385e-08 
       4.43815362e-09       4.07996012e-10       5.53655388e-08 
       4.37277703e-09       4.07995984e-10       5.53599643e-08 
      -4.43826242e-09       4.13570525e-10       5.53599640e-08 
      -4.37288583e-09       4.13570553e-10       5.53655385e-08 
       4.64982475e-09       4.54455140e-10       6.16478266e-08 
       4.58133020e-09       4.54455126e-10       6.16419454e-08 
      -4.64993910e-09       4.60336366e-10       6.16419451e-08 
      -4.58144434e-09       4.60336380e-10       6.16478263e-08 
       4.64982475e-09       4.54455140e-10       6.16478266e-08 
       4.58133020e-09       4.54455126e-10       6.16419454e-08 
      -4.64993910e-09       4.60336366e-10       6.16419451e-08 
      -4.58144434e-09       4.60336380e-10       6.16478263e-08 
       4.85621077e-09       5.03058303e-10       6.82190717e-08 
       4.78467599e-09       5.03058289e-10       6.82128838e-08 
      -4.85633000e-09       5.09246229e-10       6.82128834e-08 
      -4.78479523e-09       5.09246242e-10       6.82190714e-08 
       4.85621077e-09       5.03058303e-10       6.82190717e-08 
       4.78467599e-09       5.03058289e-10       6.82128838e-08 
      -4.85633000e-09       5.09246229e-10       6.82128834e-08 
      -4.78479523e-09       5.09246242e-10       6.82190714e-08 
       5.05731101e-09       5.53751267e-10       7.50719678e-08 
       4.98281416e-09       5.53751253e-10       7.50654731e-08 
      -5.05743580e-09       5.60245891e-10       7.50654728e-08 
      -4.98293873e-09       5.60245905e-10       7.50719674e-08 
       5.05731101e-09       5.53751253e-10       7.50719678e-08 
       4.98281416e-09       5.53751281e-10       7.50654731e-08 
      -5.05743603e-09       5.60245891e-10       7.50654728e-08 
      -4.98293873e-09       5.60245864e-10       7.50719674e-08 
       5.25343813e-09       6.06498907e-10       8.21993337e-08 
       5.17605203e-09       6.06498948e-10       8.21925684e-08 
      -5.25356647e-09       6.13264176e-10       8.21925681e-08 
      -5.17618037e-09       6.13264134e-10       8.21993333e-08 
       5.25343813e-09       6.06498907e-10       8.21993337e-08 
       5.17605203e-09       6.06498948e-10       8.21925684e-08 
      -5.25356647e-09       6.13264176e-10       8.21925681e-08 
      -5.17618037e-09       6.13264134e-10       8.21993333e-08 
       5.44490142e-09       6.61234345e-10       8.95945975e-08 
       5.36469491e-09       6.61234373e-10       8.95875616e-08 
      -5.44503331e-09       6.68270217e-10       8.95875612e-08 
      -5.36482681e-09       6.68270189e-10       8.95945971e-08 
       5.44490142e-09       6.61234345e-10       8.95945975e-08 
       5.36469491e-09       6.61234373e-10       8.95875616e-08 
      -5.44503331e-09       6.68270217e-10       8.95875612e-08 
      -5.36482681e-09       6.68270189e-10       8.95945971e-08 
       5.63170177e-09       7.17909718e-10       9.72513125e-08 
       5.54874369e-09       7.17909746e-10       9.72440060e-08 
      -5.63183633e-09       7.25216207e-10       9.72440056e-08 
      -5.54887780e-09       7.25216179e-10       9.72513121e-08 
       5.63170177e-09       7.17909718e-10       9.72513125e-08 
       5.54874369e-09       7.17909746e-10       9.72440060e-08 
      -5.63183633e-09       7.25216207e-10       9.72440056e-08 
      -5.54887780e-09       7.25216179e-10       9.72513121e-08 
       5.81383786e-09       7.76477174e-10       1.05163032e-07 
       5.72819658e-09       7.76477202e-10       1.05155455e-07 
      -5.81397597e-09       7.84054252e-10       1.05155454e-07 
      -5.72833470e-09       7.84054224e-10       1.05163031e-07 
       5.81383786e-09       7.76477174e-10       1.05163032e-07 
       5.72819658e-09       7.76477202e-10       1.05155455e-07 
      -5.81397597e-09       7.84054252e-10       1.05155454e-07 
      -5.72833470e-09       7.84054224e-10       1.05163031e-07 
       5.99131056e-09       8.36888892e-10       1.13323309e-07 
       5.90305493e-09       8.36888919e-10       1.13315461e-07 
      -5.99145222e-09       8.44736586e-10       1.13315461e-07 
      -5.90319704e-09       8.44736558e-10       1.13323309e-07 
       5.99131056e-09       8.36888892e-10       1.13323309e-07 
       5.90305493e-09       8.36888919e-10       1.13315461e-07 
      -5.99145222e-09       8.44736586e-10       1.13315461e-07 
      -5.90319704e-09       8.44736558e-10       1.13323309e-07 
       6.16411944e-09       8.99097019e-10       1.21725697e-07 
       6.07331829e-09       8.99097061e-10       1.21717579e-07 
      -6.16426510e-09       9.07215345e-10       1.21717578e-07 
      -6.07346395e-09       9.07215303e-10       1.21725697e-07 
       6.16411944e-09       8.99097019e-10       1.21725697e-07 
       6.07331829e-09       8.99097061e-10       1.21717579e-07 
      -6.16426510e-09       9.07215345e-10       1.21717578e-07 
      -6.07346395e-09       9.07215303e-10       1.21725697e-07 
       6.33226493e-09       9.63053776e-10       1.30363749e-07 
       6.23898710e-09       9.63053803e-10       1.30355361e-07 
      -6.33241415e-09       9.71442676e-10       1.30355360e-07 
      -6.23913632e-09       9.71442649e-10       1.30363749e-07 
       6.33226493e-09       9.63053776e-10       1.30363749e-07 
       6.23898710e-09       9.63053803e-10       1.30355361e-07 
      -6.33241415e-09       9.71442676e-10       1.30355360e-07 
      -6.23913632e-09       9.71442649e-10       1.30363749e-07 
       6.49574705e-09       1.02871126e-09       1.39231019e-07 
       6.40006093e-09       1.02871130e-09       1.39222360e-07 
      -6.49589937e-09       1.03737079e-09       1.39222359e-07 
      -6.40021325e-09       1.03737074e-09       1.39231019e-07 
       6.49574705e-09       1.02871126e-09       1.39231019e-07 
       6.40006093e-09       1.02871130e-09       1.39222360e-07 
      -6.49589937e-09       1.03737079e-09       1.39222359e-07 
      -6.40021325e-09       1.03737074e-09       1.39231019e-07 
       6.65456534e-09       1.09602168e-09       1.48321060e-07 
       6.55653976e-09       1.09602170e-09       1.48312130e-07 
      -6.65472166e-09       1.10495181e-09       1.48312129e-07 
      -6.55669607e-09       1.10495178e-09       1.48321059e-07 
       6.65456534e-09       1.09602168e-09       1.48321060e-07 
       6.55653976e-09       1.09602170e-09       1.48312130e-07 
      -6.65472166e-09       1.10495181e-09       1.48312129e-07 
      -6.55669607e-09       1.10495178e-09       1.48321059e-07 
       6.80871981e-09       1.16493719e-09       1.57627424e-07 
       6.70842359e-09       1.16493722e-09       1.57618223e-07 
      -6.80888013e-09       1.17413794e-09       1.57618223e-07 
      -6.70858391e-09       1.17413791e-09       1.57627423e-07 
       6.80872025e-09       1.16493720e-09       1.57627424e-07 
       6.70842359e-09       1.16493720e-09       1.57618223e-07 
      -6.80888013e-09       1.17413793e-09       1.57618223e-07 
      -6.70858347e-09       1.17413793e-09       1.57627423e-07 
       6.95852265e-09       1.23542906e-09       1.67143791e-07 
       6.85601975e-09       1.23542906e-09       1.67134356e-07 
      -6.95868518e-09       1.24486432e-09       1.67134355e-07 
      -6.85618229e-09       1.24486432e-09       1.67143790e-07 
       6.95852265e-09       1.23542906e-09       1.67143791e-07 
       6.85601975e-09       1.23542906e-09       1.67134356e-07 
      -6.95868518e-09       1.24486432e-09       1.67134355e-07 
      -6.85618229e-09       1.24486432e-09       1.67143790e-07 
       7.10428383e-09       1.30743674e-09       1.76864448e-07 
       6.99963332e-09       1.30743674e-09       1.76854778e-07 
      -7.10444903e-09       1.31710653e-09       1.76854778e-07 
      -6.99979852e-09       1.31710653e-09       1.76864447e-07 
       7.10428383e-09       1.30743674e-09       1.76864448e-07 
       6.99963332e-09       1.30743674e-09       1.76854778e-07 
      -7.10444903e-09       1.31710653e-09       1.76854778e-07 
      -6.99979852e-09       1.31710653e-09       1.76864447e-07 
       7.24600335e-09       1.38091877e-09       1.86783808e-07 
       7.13926518e-09       1.38091877e-09       1.86773904e-07 
      -7.24617033e-09       1.39082307e-09       1.86773903e-07 
      -7.13943260e-09       1.39082307e-09       1.86783807e-07 
       7.24600335e-09       1.38091877e-09       1.86783808e-07 
       7.13926518e-09       1.38091877e-09       1.86773904e-07 
      -7.24617033e-09       1.39082307e-09       1.86773903e-07 
      -7.13943260e-09       1.39082307e-09       1.86783807e-07 
       7.38368033e-09       1.45583369e-09       1.96896283e-07 
       7.27491445e-09       1.45583369e-09       1.96886145e-07 
      -7.38385042e-09       1.46597252e-09       1.96886144e-07 
      -7.27508453e-09       1.46597252e-09       1.96896283e-07 
       7.38368033e-09       1.45583369e-09       1.96896283e-07 
       7.27491445e-09       1.45583369e-09       1.96886145e-07 
      -7.38385042e-09       1.46597252e-09       1.96886144e-07 
      -7.27508453e-09       1.46597252e-09       1.96896283e-07 
       7.51731610e-09       1.53214001e-09       2.07196288e-07 
       7.40658157e-09       1.53214001e-09       2.07185914e-07 
      -7.51748885e-09       1.54251338e-09       2.07185913e-07 
      -7.40675432e-09       1.54251338e-09       2.07196287e-07 
       7.51731610e-09       1.53214001e-09       2.07196288e-07 
       7.40658157e-09       1.53214001e-09       2.07185914e-07 
      -7.51748885e-09       1.54251338e-09       2.07185913e-07 
      -7.40675432e-09       1.54251338e-09       2.07196287e-07 
       7.64690977e-09       1.60979632e-09       2.17678233e-07 
       7.53426654e-09       1.60979632e-09       2.17667625e-07 
      -7.64708519e-09       1.62040423e-09       2.17667624e-07 
      -7.53444196e-09       1.62040423e-09       2.17678232e-07 
       7.64690977e-09       1.60979632e-09       2.17678233e-07 
       7.53426654e-09       1.60979632e-09       2.17667625e-07 
      -7.64708519e-09       1.62040423e-09       2.17667624e-07 
      -7.53444196e-09       1.62040423e-09       2.17678232e-07 
       7.77246179e-09       1.68876117e-09       2.28336533e-07 
       7.65796893e-09       1.68876117e-09       2.28325690e-07 
      -7.77264031e-09       1.69960361e-09       2.28325690e-07 
      -7.65814745e-09       1.69960361e-09       2.28336532e-07 
       7.77246179e-09       1.68876117e-09       2.28336533e-07 
       7.65796893e-09       1.68876117e-09       2.28325690e-07 
      -7.77264031e-09       1.69960361e-09       2.28325690e-07 
      -7.65814745e-09       1.69960361e-09       2.28336532e-07 
       7.89397259e-09       1.76899309e-09       2.39165599e-07 
       7.77768960e-09       1.76899309e-09       2.39154523e-07 
      -7.89415289e-09       1.78007004e-09       2.39154522e-07 
      -7.77787035e-09       1.78007004e-09       2.39165599e-07 
       7.89397259e-09       1.76899309e-09       2.39165599e-07 
       7.77768960e-09       1.76899309e-09       2.39154523e-07 