# vtk DataFile Version 2.0
./output/onsasExample_nonLinearCantileverBlade_staitc3D_pitch numElements=10/onsasExample_nonLinearCantileverBlade_staitc3D_pitch numElements=10_0021.vtk
ASCII
DATASET UNSTRUCTURED_GRID

POINTS 800 float
      -3.527500e-24      -7.180703e-02      -7.180703e-02 
       2.068738e-24       7.180703e-02      -7.180703e-02 
       3.527500e-24       7.180703e-02       7.180703e-02 
      -2.068738e-24      -7.180703e-02       7.180703e-02 
       1.000000e-01      -7.180703e-02      -7.180703e-02 
       1.000000e-01       7.180703e-02      -7.180703e-02 
       1.000000e-01       7.180703e-02       7.180704e-02 
       1.000000e-01      -7.180703e-02       7.180704e-02 
       1.000000e-01      -7.180703e-02      -7.180703e-02 
       1.000000e-01       7.180703e-02      -7.180703e-02 
       1.000000e-01       7.180703e-02       7.180704e-02 
       1.000000e-01      -7.180703e-02       7.180704e-02 
       2.000000e-01      -7.180703e-02      -7.180702e-02 
       2.000000e-01       7.180703e-02      -7.180702e-02 
       2.000000e-01       7.180703e-02       7.180704e-02 
       2.000000e-01      -7.180703e-02       7.180704e-02 
       2.000000e-01      -7.180703e-02      -7.180702e-02 
       2.000000e-01       7.180703e-02      -7.180702e-02 
       2.000000e-01       7.180703e-02       7.180704e-02 
       2.000000e-01      -7.180703e-02       7.180704e-02 
       3.000000e-01      -7.180703e-02      -7.180701e-02 
       3.000000e-01       7.180704e-02      -7.180701e-02 
       3.000000e-01       7.180704e-02       7.180705e-02 
       3.000000e-01      -7.180703e-02       7.180705e-02 
       3.000000e-01      -7.180703e-02      -7.180701e-02 
       3.000000e-01       7.180704e-02      -7.180701e-02 
       3.000000e-01       7.180704e-02       7.180705e-02 
       3.000000e-01      -7.180703e-02       7.180705e-02 
       4.000000e-01      -7.180703e-02      -7.180700e-02 
       4.000000e-01       7.180704e-02      -7.180700e-02 
       4.000000e-01       7.180704e-02       7.180707e-02 
       4.000000e-01      -7.180703e-02       7.180707e-02 
       4.000000e-01      -7.180703e-02      -7.180700e-02 
       4.000000e-01       7.180704e-02      -7.180700e-02 
       4.000000e-01       7.180704e-02       7.180707e-02 
       4.000000e-01      -7.180703e-02       7.180707e-02 
       5.000000e-01      -7.180703e-02      -7.180698e-02 
       5.000000e-01       7.180704e-02      -7.180698e-02 
       5.000000e-01       7.180704e-02       7.180708e-02 
       5.000000e-01      -7.180703e-02       7.180708e-02 
       5.000000e-01      -7.180703e-02      -7.180698e-02 
       5.000000e-01       7.180704e-02      -7.180698e-02 
       5.000000e-01       7.180704e-02       7.180708e-02 
       5.000000e-01      -7.180703e-02       7.180708e-02 
       6.000000e-01      -7.180702e-02      -7.180696e-02 
       6.000000e-01       7.180704e-02      -7.180696e-02 
       6.000000e-01       7.180704e-02       7.180711e-02 
       6.000000e-01      -7.180702e-02       7.180711e-02 
       6.000000e-01      -7.180702e-02      -7.180696e-02 
       6.000000e-01       7.180704e-02      -7.180696e-02 
       6.000000e-01       7.180704e-02       7.180711e-02 
       6.000000e-01      -7.180702e-02       7.180711e-02 
       7.000000e-01      -7.180702e-02      -7.180693e-02 
       7.000000e-01       7.180705e-02      -7.180693e-02 
       7.000000e-01       7.180705e-02       7.180713e-02 
       7.000000e-01      -7.180702e-02       7.180713e-02 
       7.000000e-01      -7.180702e-02      -7.180693e-02 
       7.000000e-01       7.180705e-02      -7.180693e-02 
       7.000000e-01       7.180705e-02       7.180713e-02 
       7.000000e-01      -7.180702e-02       7.180713e-02 
       8.000000e-01      -7.180702e-02      -7.180690e-02 
       8.000000e-01       7.180705e-02      -7.180691e-02 
       8.000000e-01       7.180705e-02       7.180716e-02 
       8.000000e-01      -7.180702e-02       7.180716e-02 
       8.000000e-01      -7.180702e-02      -7.180690e-02 
       8.000000e-01       7.180705e-02      -7.180691e-02 
       8.000000e-01       7.180705e-02       7.180716e-02 
       8.000000e-01      -7.180702e-02       7.180716e-02 
       9.000000e-01      -7.180701e-02      -7.180687e-02 
       9.000000e-01       7.180705e-02      -7.180687e-02 
       9.000000e-01       7.180705e-02       7.180719e-02 
       9.000000e-01      -7.180701e-02       7.180719e-02 
       9.000000e-01      -7.180701e-02      -7.180687e-02 
       9.000000e-01       7.180705e-02      -7.180687e-02 
       9.000000e-01       7.180705e-02       7.180719e-02 
       9.000000e-01      -7.180701e-02       7.180719e-02 
       1.000000e+00      -7.180701e-02      -7.180683e-02 
       1.000000e+00       7.180706e-02      -7.180684e-02 
       1.000000e+00       7.180706e-02       7.180723e-02 
       1.000000e+00      -7.180701e-02       7.180723e-02 
       1.000000e+00      -7.180701e-02      -7.180683e-02 
       1.000000e+00       7.180706e-02      -7.180684e-02 
       1.000000e+00       7.180706e-02       7.180723e-02 
       1.000000e+00      -7.180701e-02       7.180723e-02 
       1.100000e+00      -7.180700e-02      -7.180680e-02 
       1.100000e+00       7.180706e-02      -7.180680e-02 
       1.100000e+00       7.180706e-02       7.180727e-02 
       1.100000e+00      -7.180700e-02       7.180727e-02 
       1.100000e+00      -7.180700e-02      -7.180680e-02 
       1.100000e+00       7.180706e-02      -7.180680e-02 
       1.100000e+00       7.180706e-02       7.180727e-02 
       1.100000e+00      -7.180700e-02       7.180727e-02 
       1.200000e+00      -7.180700e-02      -7.180675e-02 
       1.200000e+00       7.180707e-02      -7.180675e-02 
       1.200000e+00       7.180707e-02       7.180731e-02 
       1.200000e+00      -7.180700e-02       7.180731e-02 
       1.200000e+00      -7.180700e-02      -7.180675e-02 
       1.200000e+00       7.180707e-02      -7.180675e-02 
       1.200000e+00       7.180707e-02       7.180731e-02 
       1.200000e+00      -7.180700e-02       7.180731e-02 
       1.300000e+00      -7.180699e-02      -7.180671e-02 
       1.300000e+00       7.180707e-02      -7.180671e-02 
       1.300000e+00       7.180707e-02       7.180736e-02 
       1.300000e+00      -7.180699e-02       7.180736e-02 
       1.300000e+00      -7.180699e-02      -7.180671e-02 
       1.300000e+00       7.180707e-02      -7.180671e-02 
       1.300000e+00       7.180707e-02       7.180736e-02 
       1.300000e+00      -7.180699e-02       7.180736e-02 
       1.400000e+00      -7.180699e-02      -7.180666e-02 
       1.400000e+00       7.180708e-02      -7.180666e-02 
       1.400000e+00       7.180708e-02       7.180741e-02 
       1.400000e+00      -7.180699e-02       7.180741e-02 
       1.400000e+00      -7.180699e-02      -7.180666e-02 
       1.400000e+00       7.180708e-02      -7.180666e-02 
       1.400000e+00       7.180708e-02       7.180741e-02 
       1.400000e+00      -7.180699e-02       7.180741e-02 
       1.500000e+00      -7.180698e-02      -7.180660e-02 
       1.500000e+00       7.180709e-02      -7.180660e-02 
       1.500000e+00       7.180709e-02       7.180746e-02 
       1.500000e+00      -7.180698e-02       7.180746e-02 
       1.500000e+00      -7.180698e-02      -7.180660e-02 
       1.500000e+00       7.180709e-02      -7.180660e-02 
       1.500000e+00       7.180709e-02       7.180746e-02 
       1.500000e+00      -7.180698e-02       7.180746e-02 
       1.600000e+00      -7.180697e-02      -7.180655e-02 
       1.600000e+00       7.180709e-02      -7.180655e-02 
       1.600000e+00       7.180709e-02       7.180752e-02 
       1.600000e+00      -7.180697e-02       7.180752e-02 
       1.600000e+00      -7.180697e-02      -7.180655e-02 
       1.600000e+00       7.180709e-02      -7.180655e-02 
       1.600000e+00       7.180709e-02       7.180752e-02 
       1.600000e+00      -7.180697e-02       7.180752e-02 
       1.700000e+00      -7.180697e-02      -7.180649e-02 
       1.700000e+00       7.180710e-02      -7.180649e-02 
       1.700000e+00       7.180710e-02       7.180758e-02 
       1.700000e+00      -7.180697e-02       7.180758e-02 
       1.700000e+00      -7.180697e-02      -7.180649e-02 
       1.700000e+00       7.180710e-02      -7.180649e-02 
       1.700000e+00       7.180710e-02       7.180758e-02 
       1.700000e+00      -7.180697e-02       7.180758e-02 
       1.800000e+00      -7.180696e-02      -7.180643e-02 
       1.800000e+00       7.180711e-02      -7.180643e-02 
       1.800000e+00       7.180711e-02       7.180764e-02 
       1.800000e+00      -7.180696e-02       7.180764e-02 
       1.800000e+00      -7.180696e-02      -7.180643e-02 
       1.800000e+00       7.180711e-02      -7.180643e-02 
       1.800000e+00       7.180711e-02       7.180764e-02 
       1.800000e+00      -7.180696e-02       7.180764e-02 
       1.900000e+00      -7.180695e-02      -7.180636e-02 
       1.900000e+00       7.180712e-02      -7.180636e-02 
       1.900000e+00       7.180712e-02       7.180770e-02 
       1.900000e+00      -7.180695e-02       7.180771e-02 
       1.900000e+00      -7.180695e-02      -7.180636e-02 
       1.900000e+00       7.180712e-02      -7.180636e-02 
       1.900000e+00       7.180712e-02       7.180770e-02 
       1.900000e+00      -7.180695e-02       7.180771e-02 
       2.000000e+00      -7.180694e-02      -7.180629e-02 
       2.000000e+00       7.180712e-02      -7.180629e-02 
       2.000000e+00       7.180713e-02       7.180777e-02 
       2.000000e+00      -7.180694e-02       7.180777e-02 
       2.000000e+00      -7.180694e-02      -7.180629e-02 
       2.000000e+00       7.180712e-02      -7.180629e-02 
       2.000000e+00       7.180713e-02       7.180777e-02 
       2.000000e+00      -7.180694e-02       7.180777e-02 
       2.100000e+00      -7.180693e-02      -7.180622e-02 
[...]
POINT_DATA       800 
VECTORS Displacements float
      -3.52750011e-24       0.00000000e+00       0.00000000e+00 
       2.06873776e-24       0.00000000e+00      -1.38777878e-17 
       3.52750011e-24       0.00000000e+00       0.00000000e+00 
      -2.06873776e-24       0.00000000e+00       1.38777878e-17 
       3.37561804e-09       2.27885086e-10       2.13043642e-09 
       2.63156942e-09       2.27885086e-10       2.06645846e-09 
      -3.37652133e-09       2.91863006e-10       2.06645834e-09 
      -2.63247270e-09       2.91862978e-10       2.13043630e-09 
       3.37561804e-09       2.27885086e-10       2.13043642e-09 
       2.63156942e-09       2.27885086e-10       2.06645846e-09 
      -3.37652133e-09       2.91863006e-10       2.06645834e-09 
      -2.63247270e-09       2.91862978e-10       2.13043630e-09 
       6.68636554e-09       9.68881711e-10       8.40417833e-09 
       5.21256485e-09       9.68881697e-10       8.27622240e-09 
      -6.68817376e-09       1.09683751e-09       8.27622193e-09 
      -5.21437310e-09       1.09683751e-09       8.40417785e-09 
       6.68636554e-09       9.68881711e-10       8.40417833e-09 
       5.21256485e-09       9.68881697e-10       8.27622240e-09 
      -6.68817376e-09       1.09683751e-09       8.27622193e-09 
      -5.21437310e-09       1.09683751e-09       8.40417785e-09 
       9.93224242e-09       2.21303503e-09       1.87408417e-08 
       7.74298631e-09       2.21303505e-09       1.85489077e-08 
      -9.93495736e-09       2.40496870e-09       1.85489067e-08 
      -7.74570125e-09       2.40496870e-09       1.87408406e-08 
       9.93224242e-09       2.21303503e-09       1.87408417e-08 
       7.74298631e-09       2.21303505e-09       1.85489077e-08 
      -9.93495736e-09       2.40496870e-09       1.85489067e-08 
      -7.74570125e-09       2.40496870e-09       1.87408406e-08 
       1.31132490e-08       3.95039022e-09       3.30600424e-08 
       1.02228340e-08       3.95039021e-09       3.28041304e-08 
      -1.31168720e-08       4.20630171e-09       3.28041285e-08 
      -1.02264570e-08       4.20630174e-09       3.30600405e-08 
       1.31132490e-08       3.95039022e-09       3.30600424e-08 
       1.02228340e-08       3.95039021e-09       3.28041304e-08 
      -1.31168720e-08       4.20630171e-09       3.28041285e-08 
      -1.02264570e-08       4.20630174e-09       3.30600405e-08 
       1.62293849e-08       6.17099243e-09       5.12813964e-08 
       1.26521076e-08       6.17099238e-09       5.09615064e-08 
      -1.62339178e-08       6.49088171e-09       5.09615035e-08 
      -1.26566405e-08       6.49088173e-09       5.12813935e-08 
       1.62293849e-08       6.17099243e-09       5.12813964e-08 
       1.26521076e-08       6.17099238e-09       5.09615064e-08 
      -1.62339178e-08       6.49088171e-09       5.09615035e-08 
      -1.26566405e-08       6.49088173e-09       5.12813935e-08 
       1.92806504e-08       8.86488673e-09       7.33245196e-08 
       1.50308073e-08       8.86488667e-09       7.29406515e-08 
      -1.92860946e-08       9.24875379e-09       7.29406474e-08 
      -1.50362516e-08       9.24875383e-09       7.33245155e-08 
       1.92806504e-08       8.86488673e-09       7.33245196e-08 
       1.50308073e-08       8.86488667e-09       7.29406515e-08 
      -1.92860946e-08       9.24875379e-09       7.29406474e-08 
      -1.50362516e-08       9.24875383e-09       7.33245155e-08 
       2.22670455e-08       1.20221184e-08       9.91090279e-08 
       1.73589332e-08       1.20221183e-08       9.86611817e-08 
      -2.22734026e-08       1.24699631e-08       9.86611762e-08 
      -1.73652902e-08       1.24699632e-08       9.91090224e-08 
       2.22670455e-08       1.20221184e-08       9.91090279e-08 
       1.73589332e-08       1.20221183e-08       9.86611817e-08 
      -2.22734026e-08       1.24699631e-08       9.86611762e-08 
      -1.73652902e-08       1.24699632e-08       9.91090224e-08 
       2.51885703e-08       1.56327324e-08       1.28554537e-07 
       1.96364853e-08       1.56327323e-08       1.28042713e-07 
      -2.51958413e-08       1.61445549e-08       1.28042706e-07 
      -1.96437563e-08       1.61445550e-08       1.28554530e-07 
       2.51885703e-08       1.56327324e-08       1.28554537e-07 
       1.96364853e-08       1.56327323e-08       1.28042713e-07 
      -2.51958413e-08       1.61445549e-08       1.28042706e-07 
      -1.96437563e-08       1.61445550e-08       1.28554530e-07 
       2.80452244e-08       1.96867740e-08       1.61580664e-07 
       2.18634635e-08       1.96867739e-08       1.61004861e-07 
      -2.80534115e-08       2.02625742e-08       1.61004852e-07 
      -2.18716504e-08       2.02625744e-08       1.61580655e-07 
       2.80452244e-08       1.96867740e-08       1.61580664e-07 
       2.18634635e-08       1.96867739e-08       1.61004861e-07 
      -2.80534115e-08       2.02625742e-08       1.61004852e-07 
      -2.18716504e-08       2.02625744e-08       1.61580655e-07 
       3.08370083e-08       2.41742884e-08       1.98107023e-07 
       2.40398677e-08       2.41742882e-08       1.97467242e-07 
      -3.08461122e-08       2.48140663e-08       1.97467232e-07 
      -2.40489718e-08       2.48140664e-08       1.98107012e-07 
       3.08370083e-08       2.41742884e-08       1.98107023e-07 
       2.40398677e-08       2.41742882e-08       1.97467242e-07 
      -3.08461122e-08       2.48140663e-08       1.97467232e-07 
      -2.40489718e-08       2.48140664e-08       1.98107012e-07 
       3.35674972e-08       2.90888627e-08       2.38051274e-07 
       2.61685216e-08       2.90888625e-08       2.37354250e-07 
      -3.35771968e-08       2.97858834e-08       2.37354237e-07 
      -2.61782211e-08       2.97858836e-08       2.38051261e-07 
       3.35674972e-08       2.90888627e-08       2.38051274e-07 
       2.61685216e-08       2.90888625e-08       2.37354250e-07 
      -3.35771968e-08       2.97858834e-08       2.37354237e-07 
      -2.61782211e-08       2.97858836e-08       2.38051261e-07 
       3.62399435e-08       3.44180479e-08       2.81343451e-07 
       2.82519241e-08       3.44180477e-08       2.80589184e-07 
      -3.62502417e-08       3.51723114e-08       2.80589169e-07 
      -2.82622223e-08       3.51723116e-08       2.81343436e-07 
       3.62399435e-08       3.44180479e-08       2.81343451e-07 
       2.82519241e-08       3.44180477e-08       2.80589184e-07 
      -3.62502417e-08       3.51723114e-08       2.80589169e-07 
      -2.82622223e-08       3.51723116e-08       2.81343436e-07 
       3.88543464e-08       4.01529371e-08       3.27911632e-07 
       3.02900749e-08       4.01529369e-08       3.27100121e-07 
      -3.88652475e-08       4.09644433e-08       3.27100104e-07 
      -3.03009760e-08       4.09644436e-08       3.27911615e-07 
       3.88543464e-08       4.01529371e-08       3.27911632e-07 
       3.02900749e-08       4.01529369e-08       3.27100121e-07 
      -3.88652475e-08       4.09644433e-08       3.27100104e-07 
      -3.03009760e-08       4.09644436e-08       3.27911615e-07 
       4.14107064e-08       4.62846232e-08       3.77683893e-07 
       3.22829745e-08       4.62846230e-08       3.76815139e-07 
      -4.14222132e-08       4.71533722e-08       3.76815120e-07 
      -3.22944813e-08       4.71533725e-08       3.77683874e-07 
       4.14107064e-08       4.62846232e-08       3.77683893e-07 
       3.22829745e-08       4.62846230e-08       3.76815139e-07 
      -4.14222132e-08       4.71533722e-08       3.76815120e-07 
      -3.22944813e-08       4.71533725e-08       3.77683874e-07 
       4.39090231e-08       5.28041994e-08       4.30588314e-07 
       3.42306226e-08       5.28041991e-08       4.29662316e-07 
      -4.39211398e-08       5.37301911e-08       4.29662295e-07 
      -3.42427393e-08       5.37301914e-08       4.30588292e-07 
       4.39090231e-08       5.28041994e-08       4.30588314e-07 
       3.42306226e-08       5.28041991e-08       4.29662316e-07 
      -4.39211398e-08       5.37301911e-08       4.29662295e-07 
      -3.42427393e-08       5.37301914e-08       4.30588292e-07 
       4.63492968e-08       5.97027585e-08       4.86552970e-07 
       3.61330192e-08       5.97027582e-08       4.85569729e-07 
      -4.63620269e-08       6.06859930e-08       4.85569705e-07 
      -3.61457493e-08       6.06859933e-08       4.86552946e-07 
       4.63492968e-08       5.97027585e-08       4.86552970e-07 
       3.61330192e-08       5.97027582e-08       4.85569729e-07 
      -4.63620269e-08       6.06859930e-08       4.85569705e-07 
      -3.61457493e-08       6.06859933e-08       4.86552946e-07 
       4.87315279e-08       6.69713937e-08       5.45505939e-07 
       3.79901650e-08       6.69713933e-08       5.44465455e-07 
      -4.87448737e-08       6.80118708e-08       5.44465429e-07 
      -3.80035108e-08       6.80118712e-08       5.45505913e-07 
       4.87315279e-08       6.69713937e-08       5.45505939e-07 
       3.79901650e-08       6.69713933e-08       5.44465455e-07 
      -4.87448737e-08       6.80118708e-08       5.44465429e-07 
      -3.80035108e-08       6.80118712e-08       5.45505913e-07 
       5.10557159e-08       7.46011979e-08       6.07375299e-07 
       3.98020592e-08       7.46011975e-08       6.06277572e-07 
      -5.10696812e-08       7.56989178e-08       6.06277543e-07 
      -3.98160245e-08       7.56989182e-08       6.07375270e-07 
       5.10557159e-08       7.46011979e-08       6.07375299e-07 
       3.98020592e-08       7.46011975e-08       6.06277572e-07 
      -5.10696812e-08       7.56989178e-08       6.06277543e-07 
      -3.98160245e-08       7.56989182e-08       6.07375270e-07 
       5.33218611e-08       8.25832643e-08       6.72089127e-07 
       4.15687025e-08       8.25832638e-08       6.70934156e-07 
      -5.33364486e-08       8.37382268e-08       6.70934125e-07 
      -4.15832899e-08       8.37382273e-08       6.72089096e-07 
       5.33218611e-08       8.25832643e-08       6.72089127e-07 
       4.15687025e-08       8.25832638e-08       6.70934156e-07 
      -5.33364486e-08       8.37382268e-08       6.70934125e-07 
      -4.15832899e-08       8.37382273e-08       6.72089096e-07 
       5.55299633e-08       9.09086857e-08       7.39575501e-07 
       4.32900942e-08       9.09086852e-08       7.38363286e-07 
      -5.55451767e-08       9.21208910e-08       7.38363252e-07 
      -4.33053076e-08       9.21208915e-08       7.39575467e-07 
       5.55299633e-08       9.09086857e-08       7.39575501e-07 
       4.32900942e-08       9.09086852e-08       7.38363286e-07 
      -5.55451765e-08       9.21208909e-08       7.38363252e-07 
      -4.33053076e-08       9.21208915e-08       7.39575467e-07 
       5.76835508e-08       9.95720973e-08       8.09760540e-07 
       4.49690103e-08       9.95720968e-08       8.08497817e-07 
      -5.76991650e-08       1.00834811e-07       8.08497780e-07 
      -4.49846249e-08       1.00834811e-07       8.09760503e-07 
       5.76835508e-08       9.95720973e-08       8.09760540e-07 
       4.49690103e-08       9.95720968e-08       8.08497817e-07 
      -5.76991650e-08       1.00834811e-07       8.08497780e-07 
      -4.49846249e-08       1.00834811e-07       8.09760503e-07 
       5.97859229e-08       1.08562098e-07       8.82582741e-07 
       4.66079983e-08       1.08562097e-07       8.81269509e-07 
      -5.98019430e-08       1.09875319e-07       8.81269470e-07 
      -4.66240184e-08       1.09875320e-07       8.82582702e-07 
       5.97859229e-08       1.08562098e-07       8.82582741e-07 
       4.66079983e-08       1.08562097e-07       8.81269509e-07 
      -5.98019430e-08       1.09875319e-07       8.81269470e-07 
      -4.66240184e-08       1.09875320e-07       8.82582702e-07 
       6.18370803e-08       1.17870829e-07       9.57978643e-07 
       4.82070583e-08       1.17870828e-07       9.56614903e-07 
      -6.18535099e-08       1.19234558e-07       9.56614860e-07 
      -4.82234874e-08       1.19234558e-07       9.57978601e-07 
       6.18370803e-08       1.17870829e-07       9.57978643e-07 
       4.82070583e-08       1.17870828e-07       9.56614903e-07 
      -6.18535099e-08       1.19234558e-07       9.56614860e-07 
      -4.82234874e-08       1.19234558e-07       9.57978601e-07 
       6.38370223e-08       1.27490430e-07       1.03588478e-06 
       4.97661898e-08       1.27490429e-07       1.03447054e-06 
      -6.38538658e-08       1.28904667e-07       1.03447049e-06 
      -4.97830333e-08       1.28904668e-07       1.03588474e-06 
       6.38370223e-08       1.27490430e-07       1.03588478e-06 
       4.97661898e-08       1.27490429e-07       1.03447054e-06 
      -6.38538658e-08       1.28904667e-07       1.03447049e-06 
      -4.97830333e-08       1.28904668e-07       1.03588474e-06 
       6.57857497e-08       1.37413043e-07       1.11623770e-06 
       5.12853928e-08       1.37413043e-07       1.11477295e-06 
      -6.58030115e-08       1.38877788e-07       1.11477290e-06 
      -5.13026546e-08       1.38877789e-07       1.11623766e-06 
       6.57857497e-08       1.37413043e-07       1.11623770e-06 
       5.12853928e-08       1.37413043e-07       1.11477295e-06 
      -6.58030115e-08       1.38877788e-07       1.11477290e-06 
      -5.13026546e-08       1.38877789e-07       1.11623766e-06 
       6.76832621e-08       1.47630809e-07       1.19897394e-06 
       5.27646677e-08       1.47630808e-07       1.19745867e-06 
      -6.77009457e-08       1.49146062e-07       1.19745862e-06 
      -5.27823514e-08       1.49146063e-07       1.19897389e-06 
       6.76832621e-08       1.47630809e-07       1.19897394e-06 
       5.27646677e-08       1.47630808e-07       1.19745867e-06 
      -6.77009457e-08       1.49146062e-07       1.19745862e-06 
      -5.27823514e-08       1.49146063e-07       1.19897389e-06 
       6.95295594e-08       1.58135869e-07       1.28403003e-06 
       5.42040146e-08       1.58135868e-07       1.28246426e-06 
      -6.95476690e-08       1.59701630e-07       1.28246421e-06 
      -5.42221241e-08       1.59701631e-07       1.28402998e-06 
       6.95295594e-08       1.58135869e-07       1.28403003e-06 
       5.42040146e-08       1.58135868e-07       1.28246426e-06 
      -6.95476690e-08       1.59701630e-07       1.28246421e-06 
      -5.42221241e-08       1.59701631e-07       1.28402998e-06 
       7.13246426e-08       1.68920363e-07       1.37134252e-06 
       5.56034339e-08       1.68920362e-07       1.36972624e-06 
      -7.13431807e-08       1.70536632e-07       1.36972618e-06 
      -5.56219724e-08       1.70536633e-07       1.37134247e-06 
       7.13246426e-08       1.68920363e-07       1.37134252e-06 
       5.56034339e-08       1.68920362e-07       1.36972624e-06 
      -7.13431807e-08       1.70536632e-07       1.36972618e-06 
      -5.56219724e-08       1.70536633e-07       1.37134247e-06 
       7.30685104e-08       1.79976432e-07       1.46084794e-06 
       5.69629246e-08       1.79976431e-07       1.45918115e-06 
      -7.30874823e-08       1.81643209e-07       1.45918109e-06 
      -5.69818965e-08       1.81643210e-07       1.46084789e-06 
       7.30685104e-08       1.79976432e-07       1.46084794e-06 
       5.69629246e-08       1.79976431e-07       1.45918115e-06 
      -7.30874823e-08       1.81643209e-07       1.45918109e-06 
      -5.69818965e-08       1.81643210e-07       1.46084789e-06 
       7.47611635e-08       1.91296218e-07       1.55248284e-06 
       5.82824877e-08       1.91296217e-07       1.55076554e-06 
      -7.47805720e-08       1.93013503e-07       1.55076548e-06 
      -5.83018966e-08       1.93013504e-07       1.55248278e-06 
       7.47611635e-08       1.91296218e-07       1.55248284e-06 
       5.82824877e-08       1.91296217e-07       1.55076554e-06 
      -7.47805720e-08       1.93013503e-07       1.55076548e-06 
      -5.83018962e-08       1.93013504e-07       1.55248278e-06 
       7.64060930e-08       2.02875403e-07       1.64618179e-06 
       5.95648610e-08       2.02875402e-07       1.64442071e-06 
      -7.64257888e-08       2.04636461e-07       1.64442065e-06 
      -5.95845573e-08       2.04636462e-07       1.64618173e-06 
       7.64060930e-08       2.02875403e-07       1.64618179e-06 
       5.95648610e-08       2.02875402e-07       1.64442071e-06 
      -7.64257888e-08       2.04636461e-07       1.64442065e-06 
      -5.95845573e-08       2.04636462e-07       1.64618173e-06 
       7.80066354e-08       2.14703633e-07       1.74189175e-06 
       6.08126296e-08       2.14703632e-07       1.74008690e-06 
      -7.80266234e-08       2.16508465e-07       1.74008684e-06 
      -6.08326172e-08       2.16508466e-07       1.74189169e-06 
       7.80066354e-08       2.14703633e-07       1.74189175e-06 
       6.08126296e-08       2.14703632e-07       1.74008690e-06 
      -7.80266234e-08       2.16508465e-07       1.74008684e-06 
      -6.08326172e-08       2.16508466e-07       1.74189169e-06 
       7.95627919e-08       2.26774099e-07       1.83955773e-06 
       6.20257938e-08       2.26774098e-07       1.83770910e-06 
      -7.95830744e-08       2.28622704e-07       1.83770903e-06 
      -6.20460763e-08       2.28622705e-07       1.83955766e-06 
       7.95627919e-08       2.26774099e-07       1.83955773e-06 
       6.20257938e-08       2.26774098e-07       1.83770910e-06 
      -7.95830744e-08       2.28622704e-07       1.83770903e-06 
      -6.20460763e-08       2.28622705e-07       1.83955766e-06 
       8.10745613e-08       2.39079988e-07       1.93912471e-06 
       6.32043529e-08       2.39079987e-07       1.93723232e-06 
      -8.10951435e-08       2.40972367e-07       1.93723224e-06 
      -6.32249355e-08       2.40972368e-07       1.93912464e-06 
       8.10745613e-08       2.39079988e-07       1.93912471e-06 
       6.32043529e-08       2.39079987e-07       1.93723232e-06 
      -8.10951435e-08       2.40972367e-07       1.93723224e-06 
      -6.32249355e-08       2.40972368e-07       1.93912464e-06 
       8.25419439e-08       2.51614490e-07       2.04053771e-06 
       6.43483071e-08       2.51614488e-07       2.03860154e-06 
      -8.25628304e-08       2.53550642e-07       2.03860147e-06 
      -6.43691935e-08       2.53550643e-07       2.04053764e-06 
       8.25419439e-08       2.51614490e-07       2.04053771e-06 
       6.43483071e-08       2.51614488e-07       2.03860154e-06 
      -8.25628304e-08       2.53550642e-07       2.03860147e-06 
      -6.43691935e-08       2.53550643e-07       2.04053764e-06 
       8.39649408e-08       2.64370792e-07       2.14374173e-06 
       6.54576575e-08       2.64370791e-07       2.14176178e-06 
      -8.39861340e-08       2.66350718e-07       2.14176171e-06 
      -6.54788508e-08       2.66350719e-07       2.14374165e-06 
       8.39649408e-08       2.64370792e-07       2.14374173e-06 
       6.54576575e-08       2.64370791e-07       2.14176178e-06 
      -8.39861340e-08       2.66350718e-07       2.14176171e-06 
      -6.54788508e-08       2.66350719e-07       2.14374165e-06 
       8.53435509e-08       2.77342085e-07       2.24868176e-06 
       6.65324027e-08       2.77342083e-07       2.24665804e-06 
      -8.53650555e-08       2.79365784e-07       2.24665796e-06 
      -6.65539073e-08       2.79365785e-07       2.24868168e-06 
       8.53435509e-08       2.77342085e-07       2.24868176e-06 
       6.65324027e-08       2.77342083e-07       2.24665804e-06 
      -8.53650555e-08       2.79365784e-07       2.24665796e-06 
      -6.65539073e-08       2.79365785e-07       2.24868168e-06 
       8.66777756e-08       2.90521556e-07       2.35530280e-06 
       6.75725444e-08       2.90521555e-07       2.35323531e-06 
      -8.66995933e-08       2.92589028e-07       2.35323522e-06 
      -6.75943621e-08       2.92589029e-07       2.35530272e-06 
       8.66777756e-08       2.90521556e-07       2.35530280e-06 
       6.75725444e-08       2.90521555e-07       2.35323531e-06 