# vtk DataFile Version 2.0
./output/onsasExample_nonLinearCantileverBlade_staitc3D_pitch numElements=10/onsasExample_nonLinearCantileverBlade_staitc3D_pitch numElements=10_0011.vtk
ASCII
DATASET UNSTRUCTURED_GRID

POINTS 800 float
       3.111279e-25      -7.180703e-02      -7.180703e-02 
      -2.810903e-25       7.180703e-02      -7.180703e-02 
      -3.111279e-25       7.180703e-02       7.180703e-02 
       2.810903e-25      -7.180703e-02       7.180703e-02 
       1.000000e-01      -7.180703e-02      -7.180703e-02 
       1.000000e-01       7.180703e-02      -7.180703e-02 
       1.000000e-01       7.180703e-02       7.180703e-02 
       1.000000e-01      -7.180703e-02       7.180703e-02 
       1.000000e-01      -7.180703e-02      -7.180703e-02 
       1.000000e-01       7.180703e-02      -7.180703e-02 
       1.000000e-01       7.180703e-02       7.180703e-02 
       1.000000e-01      -7.180703e-02       7.180703e-02 
       2.000000e-01      -7.180703e-02      -7.180703e-02 
       2.000000e-01       7.180703e-02      -7.180703e-02 
       2.000000e-01       7.180703e-02       7.180704e-02 
       2.000000e-01      -7.180703e-02       7.180704e-02 
       2.000000e-01      -7.180703e-02      -7.180703e-02 
       2.000000e-01       7.180703e-02      -7.180703e-02 
       2.000000e-01       7.180703e-02       7.180704e-02 
       2.000000e-01      -7.180703e-02       7.180704e-02 
       3.000000e-01      -7.180703e-02      -7.180702e-02 
       3.000000e-01       7.180703e-02      -7.180702e-02 
       3.000000e-01       7.180703e-02       7.180705e-02 
       3.000000e-01      -7.180703e-02       7.180705e-02 
       3.000000e-01      -7.180703e-02      -7.180702e-02 
       3.000000e-01       7.180703e-02      -7.180702e-02 
       3.000000e-01       7.180703e-02       7.180705e-02 
       3.000000e-01      -7.180703e-02       7.180705e-02 
       4.000000e-01      -7.180703e-02      -7.180701e-02 
       4.000000e-01       7.180703e-02      -7.180701e-02 
       4.000000e-01       7.180703e-02       7.180706e-02 
       4.000000e-01      -7.180703e-02       7.180706e-02 
       4.000000e-01      -7.180703e-02      -7.180701e-02 
       4.000000e-01       7.180703e-02      -7.180701e-02 
       4.000000e-01       7.180703e-02       7.180706e-02 
       4.000000e-01      -7.180703e-02       7.180706e-02 
       5.000000e-01      -7.180703e-02      -7.180700e-02 
       5.000000e-01       7.180703e-02      -7.180700e-02 
       5.000000e-01       7.180703e-02       7.180707e-02 
       5.000000e-01      -7.180703e-02       7.180707e-02 
       5.000000e-01      -7.180703e-02      -7.180700e-02 
       5.000000e-01       7.180703e-02      -7.180700e-02 
       5.000000e-01       7.180703e-02       7.180707e-02 
       5.000000e-01      -7.180703e-02       7.180707e-02 
       6.000000e-01      -7.180703e-02      -7.180698e-02 
       6.000000e-01       7.180703e-02      -7.180698e-02 
       6.000000e-01       7.180703e-02       7.180708e-02 
       6.000000e-01      -7.180703e-02       7.180708e-02 
       6.000000e-01      -7.180703e-02      -7.180698e-02 
       6.000000e-01       7.180703e-02      -7.180698e-02 
       6.000000e-01       7.180703e-02       7.180708e-02 
       6.000000e-01      -7.180703e-02       7.180708e-02 
       7.000000e-01      -7.180703e-02      -7.180696e-02 
       7.000000e-01       7.180703e-02      -7.180696e-02 
       7.000000e-01       7.180703e-02       7.180710e-02 
       7.000000e-01      -7.180703e-02       7.180710e-02 
       7.000000e-01      -7.180703e-02      -7.180696e-02 
       7.000000e-01       7.180703e-02      -7.180696e-02 
       7.000000e-01       7.180703e-02       7.180710e-02 
       7.000000e-01      -7.180703e-02       7.180710e-02 
       8.000000e-01      -7.180703e-02      -7.180694e-02 
       8.000000e-01       7.180703e-02      -7.180694e-02 
       8.000000e-01       7.180703e-02       7.180712e-02 
       8.000000e-01      -7.180703e-02       7.180712e-02 
       8.000000e-01      -7.180703e-02      -7.180694e-02 
       8.000000e-01       7.180703e-02      -7.180694e-02 
       8.000000e-01       7.180703e-02       7.180712e-02 
       8.000000e-01      -7.180703e-02       7.180712e-02 
       9.000000e-01      -7.180703e-02      -7.180692e-02 
       9.000000e-01       7.180704e-02      -7.180692e-02 
       9.000000e-01       7.180704e-02       7.180714e-02 
       9.000000e-01      -7.180703e-02       7.180714e-02 
       9.000000e-01      -7.180703e-02      -7.180692e-02 
       9.000000e-01       7.180704e-02      -7.180692e-02 
       9.000000e-01       7.180704e-02       7.180714e-02 
       9.000000e-01      -7.180703e-02       7.180714e-02 
       1.000000e+00      -7.180703e-02      -7.180690e-02 
       1.000000e+00       7.180704e-02      -7.180690e-02 
       1.000000e+00       7.180704e-02       7.180717e-02 
       1.000000e+00      -7.180703e-02       7.180717e-02 
       1.000000e+00      -7.180703e-02      -7.180690e-02 
       1.000000e+00       7.180704e-02      -7.180690e-02 
       1.000000e+00       7.180704e-02       7.180717e-02 
       1.000000e+00      -7.180703e-02       7.180717e-02 
       1.100000e+00      -7.180703e-02      -7.180687e-02 
       1.100000e+00       7.180704e-02      -7.180687e-02 
       1.100000e+00       7.180704e-02       7.180720e-02 
       1.100000e+00      -7.180703e-02       7.180720e-02 
       1.100000e+00      -7.180703e-02      -7.180687e-02 
       1.100000e+00       7.180704e-02      -7.180687e-02 
       1.100000e+00       7.180704e-02       7.180720e-02 
       1.100000e+00      -7.180703e-02       7.180720e-02 
       1.200000e+00      -7.180703e-02      -7.180684e-02 
       1.200000e+00       7.180704e-02      -7.180684e-02 
       1.200000e+00       7.180704e-02       7.180723e-02 
       1.200000e+00      -7.180703e-02       7.180723e-02 
       1.200000e+00      -7.180703e-02      -7.180684e-02 
       1.200000e+00       7.180704e-02      -7.180684e-02 
       1.200000e+00       7.180704e-02       7.180723e-02 
       1.200000e+00      -7.180703e-02       7.180723e-02 
       1.300000e+00      -7.180703e-02      -7.180681e-02 
       1.300000e+00       7.180704e-02      -7.180681e-02 
       1.300000e+00       7.180704e-02       7.180726e-02 
       1.300000e+00      -7.180703e-02       7.180726e-02 
       1.300000e+00      -7.180703e-02      -7.180681e-02 
       1.300000e+00       7.180704e-02      -7.180681e-02 
       1.300000e+00       7.180704e-02       7.180726e-02 
       1.300000e+00      -7.180703e-02       7.180726e-02 
       1.400000e+00      -7.180703e-02      -7.180677e-02 
       1.400000e+00       7.180704e-02      -7.180677e-02 
       1.400000e+00       7.180704e-02       7.180729e-02 
       1.400000e+00      -7.180703e-02       7.180729e-02 
       1.400000e+00      -7.180703e-02      -7.180677e-02 
       1.400000e+00       7.180704e-02      -7.180677e-02 
       1.400000e+00       7.180704e-02       7.180729e-02 
       1.400000e+00      -7.180703e-02       7.180729e-02 
       1.500000e+00      -7.180703e-02      -7.180674e-02 
       1.500000e+00       7.180704e-02      -7.180674e-02 
       1.500000e+00       7.180704e-02       7.180733e-02 
       1.500000e+00      -7.180703e-02       7.180733e-02 
       1.500000e+00      -7.180703e-02      -7.180674e-02 
       1.500000e+00       7.180704e-02      -7.180674e-02 
       1.500000e+00       7.180704e-02       7.180733e-02 
       1.500000e+00      -7.180703e-02       7.180733e-02 
       1.600000e+00      -7.180703e-02      -7.180670e-02 
       1.600000e+00       7.180704e-02      -7.180670e-02 
       1.600000e+00       7.180704e-02       7.180737e-02 
       1.600000e+00      -7.180703e-02       7.180737e-02 
       1.600000e+00      -7.180703e-02      -7.180670e-02 
       1.600000e+00       7.180704e-02      -7.180670e-02 
       1.600000e+00       7.180704e-02       7.180737e-02 
       1.600000e+00      -7.180703e-02       7.180737e-02 
       1.700000e+00      -7.180703e-02      -7.180666e-02 
       1.700000e+00       7.180704e-02      -7.180666e-02 
       1.700000e+00       7.180704e-02       7.180741e-02 
       1.700000e+00      -7.180703e-02       7.180741e-02 
       1.700000e+00      -7.180703e-02      -7.180666e-02 
       1.700000e+00       7.180704e-02      -7.180666e-02 
       1.700000e+00       7.180704e-02       7.180741e-02 
       1.700000e+00      -7.180703e-02       7.180741e-02 
       1.800000e+00      -7.180703e-02      -7.180661e-02 
       1.800000e+00       7.180704e-02      -7.180661e-02 
       1.800000e+00       7.180704e-02       7.180745e-02 
       1.800000e+00      -7.180703e-02       7.180745e-02 
       1.800000e+00      -7.180703e-02      -7.180661e-02 
       1.800000e+00       7.180704e-02      -7.180661e-02 
       1.800000e+00       7.180704e-02       7.180745e-02 
       1.800000e+00      -7.180703e-02       7.180745e-02 
       1.900000e+00      -7.180702e-02      -7.180657e-02 
       1.900000e+00       7.180704e-02      -7.180657e-02 
       1.900000e+00       7.180704e-02       7.180750e-02 
       1.900000e+00      -7.180702e-02       7.180750e-02 
       1.900000e+00      -7.180702e-02      -7.180657e-02 
       1.900000e+00       7.180704e-02      -7.180657e-02 
       1.900000e+00       7.180704e-02       7.180750e-02 
       1.900000e+00      -7.180702e-02       7.180750e-02 
       2.000000e+00      -7.180702e-02      -7.180652e-02 
       2.000000e+00       7.180704e-02      -7.180652e-02 
       2.000000e+00       7.180704e-02       7.180754e-02 
       2.000000e+00      -7.180702e-02       7.180754e-02 
       2.000000e+00      -7.180702e-02      -7.180652e-02 
       2.000000e+00       7.180704e-02      -7.180652e-02 
       2.000000e+00       7.180704e-02       7.180754e-02 
       2.000000e+00      -7.180702e-02       7.180754e-02 
       2.100000e+00      -7.180702e-02      -7.180647e-02 
[...]
POINT_DATA       800 
VECTORS Displacements float
       3.11127871e-25      -1.38777878e-17       0.00000000e+00 
      -2.81090251e-25      -1.38777878e-17       0.00000000e+00 
      -3.11127871e-25       1.38777878e-17       0.00000000e+00 
       2.81090251e-25       1.38777878e-17       0.00000000e+00 
       2.11691419e-09       2.47499521e-11       1.45412027e-09 
       2.04329466e-09       2.47499521e-11       1.45219396e-09 
      -2.11725741e-09       2.66762723e-11       1.45219389e-09 
      -2.04363788e-09       2.66762723e-11       1.45412020e-09 
       2.11691419e-09       2.47499521e-11       1.45412027e-09 
       2.04329466e-09       2.47499521e-11       1.45219396e-09 
      -2.11725741e-09       2.66762723e-11       1.45219389e-09 
      -2.04363788e-09       2.66762723e-11       1.45412020e-09 
       4.19314911e-09       1.00269501e-10       5.77744455e-09 
       4.04732461e-09       1.00269501e-10       5.77359194e-09 
      -4.19383636e-09       1.04122100e-10       5.77359169e-09 
      -4.04801187e-09       1.04122100e-10       5.77744430e-09 
       4.19314911e-09       1.00269501e-10       5.77744455e-09 
       4.04732461e-09       1.00269501e-10       5.77359194e-09 
      -4.19383636e-09       1.04122100e-10       5.77359169e-09 
      -4.04801187e-09       1.04122100e-10       5.77744430e-09 
       6.22870477e-09       2.25573643e-10       1.29143076e-08 
       6.01208983e-09       2.25573643e-10       1.29085286e-08 
      -6.22973678e-09       2.31352548e-10       1.29085281e-08 
      -6.01312183e-09       2.31352548e-10       1.29143070e-08 
       6.22870477e-09       2.25573643e-10       1.29143076e-08 
       6.01208983e-09       2.25573643e-10       1.29085286e-08 
      -6.22973678e-09       2.31352548e-10       1.29085281e-08 
      -6.01312183e-09       2.31352548e-10       1.29143070e-08 
       8.22358120e-09       3.99677388e-10       2.28090440e-08 
       7.93759042e-09       3.99677388e-10       2.28013388e-08 
      -8.22495877e-09       4.07382614e-10       2.28013379e-08 
      -7.93896798e-09       4.07382614e-10       2.28090431e-08 
       8.22358120e-09       3.99677388e-10       2.28090440e-08 
       7.93759042e-09       3.99677388e-10       2.28013388e-08 
      -8.22495877e-09       4.07382614e-10       2.28013379e-08 
      -7.93896798e-09       4.07382614e-10       2.28090431e-08 
       1.01777784e-08       6.21595789e-10       3.54059886e-08 
       9.82382631e-09       6.21595789e-10       3.53963570e-08 
      -1.01795022e-08       6.31227293e-10       3.53963556e-08 
      -9.82555015e-09       6.31227293e-10       3.54059872e-08 
       1.01777784e-08       6.21595789e-10       3.54059886e-08 
       9.82382631e-09       6.21595789e-10       3.53963570e-08 
      -1.01795022e-08       6.31227293e-10       3.53963556e-08 
      -9.82555015e-09       6.31227293e-10       3.54059872e-08 
       1.20912963e-08       8.90343854e-10       5.06494760e-08 
       1.16707976e-08       8.90343854e-10       5.06379182e-08 
      -1.20933671e-08       9.01901664e-10       5.06379162e-08 
      -1.16728683e-08       9.01901664e-10       5.06494740e-08 
       1.20912963e-08       8.90343854e-10       5.06494760e-08 
       1.16707976e-08       8.90343854e-10       5.06379182e-08 
      -1.20933671e-08       9.01901664e-10       5.06379162e-08 
      -1.16728683e-08       9.01901664e-10       5.06494740e-08 
       1.39641348e-08       1.20493661e-09       6.84838410e-08 
       1.34785040e-08       1.20493661e-09       6.84703568e-08 
      -1.39665536e-08       1.21842071e-09       6.84703542e-08 
      -1.34809227e-08       1.21842071e-09       6.84838384e-08 
       1.39641348e-08       1.20493661e-09       6.84838410e-08 
       1.34785040e-08       1.20493661e-09       6.84703568e-08 
      -1.39665536e-08       1.21842071e-09       6.84703542e-08 
      -1.34809227e-08       1.21842071e-09       6.84838384e-08 
       1.57962944e-08       1.56438906e-09       8.88534182e-08 
       1.52469459e-08       1.56438906e-09       8.88380077e-08 
      -1.57990614e-08       1.57979944e-09       8.88380043e-08 
      -1.52497129e-08       1.57979946e-09       8.88534149e-08 
       1.57962944e-08       1.56438906e-09       8.88534182e-08 
       1.52469459e-08       1.56438906e-09       8.88380077e-08 
      -1.57990614e-08       1.57979944e-09       8.88380043e-08 
      -1.52497129e-08       1.57979946e-09       8.88534149e-08 
       1.75877745e-08       1.96771625e-09       1.11702542e-07 
       1.69761231e-08       1.96771625e-09       1.11685206e-07 
      -1.75908909e-08       1.98505296e-09       1.11685201e-07 
      -1.69792395e-08       1.98505296e-09       1.11702538e-07 
       1.75877745e-08       1.96771625e-09       1.11702542e-07 
       1.69761231e-08       1.96771625e-09       1.11685206e-07 
      -1.75908909e-08       1.98505296e-09       1.11685201e-07 
      -1.69792395e-08       1.98505296e-09       1.11702538e-07 
       1.93385756e-08       2.41393319e-09       1.36975548e-07 
       1.86660356e-08       2.41393319e-09       1.36956285e-07 
      -1.93420415e-08       2.43319619e-09       1.36956280e-07 
      -1.86695016e-08       2.43319619e-09       1.36975543e-07 
       1.93385756e-08       2.41393319e-09       1.36975548e-07 
       1.86660358e-08       2.41393322e-09       1.36956285e-07 
      -1.93420415e-08       2.43319620e-09       1.36956280e-07 
      -1.86695016e-08       2.43319617e-09       1.36975543e-07 
       2.10508997e-08       2.90217358e-09       1.64617646e-07 
       2.03188115e-08       2.90217361e-09       1.64596659e-07 
      -2.10545934e-08       2.92316010e-09       1.64596653e-07 
      -2.03225052e-08       2.92316008e-09       1.64617640e-07 
       2.10508997e-08       2.90217358e-09       1.64617646e-07 
       2.03188115e-08       2.90217361e-09       1.64596659e-07 
      -2.10545934e-08       2.92316010e-09       1.64596653e-07 
      -2.03225052e-08       2.92316008e-09       1.64617640e-07 
       2.27268262e-08       3.43143745e-09       1.94578154e-07 
       2.19364555e-08       3.43143748e-09       1.94555443e-07 
      -2.27307491e-08       3.45414745e-09       1.94555437e-07 
      -2.19403784e-08       3.45414743e-09       1.94578147e-07 
       2.27268262e-08       3.43143745e-09       1.94578154e-07 
       2.19364555e-08       3.43143748e-09       1.94555443e-07 
      -2.27307491e-08       3.45414745e-09       1.94555437e-07 
      -2.19403784e-08       3.45414743e-09       1.94578147e-07 
       2.43663549e-08       4.00084350e-09       2.26807266e-07 
       2.35189670e-08       4.00084353e-09       2.26782833e-07 
      -2.43705089e-08       4.02527700e-09       2.26782825e-07 
      -2.35231210e-08       4.02527696e-09       2.26807258e-07 
       2.43663549e-08       4.00084350e-09       2.26807266e-07 
       2.35189670e-08       4.00084353e-09       2.26782833e-07 
      -2.43705089e-08       4.02527700e-09       2.26782825e-07 
      -2.35231210e-08       4.02527696e-09       2.26807258e-07 
       2.59694859e-08       4.60951044e-09       2.61255178e-07 
       2.50663468e-08       4.60951048e-09       2.61229021e-07 
      -2.59738726e-08       4.63566743e-09       2.61229012e-07 
      -2.50707335e-08       4.63566741e-09       2.61255169e-07 
       2.59694859e-08       4.60951044e-09       2.61255178e-07 
       2.50663468e-08       4.60951048e-09       2.61229021e-07 
      -2.59738726e-08       4.63566743e-09       2.61229012e-07 
      -2.50707335e-08       4.63566741e-09       2.61255169e-07 
       2.75362191e-08       5.25655697e-09       2.97872083e-07 
       2.65785944e-08       5.25655700e-09       2.97844202e-07 
      -2.75408403e-08       5.28443744e-09       2.97844192e-07 
      -2.65832156e-08       5.28443742e-09       2.97872073e-07 
       2.75362191e-08       5.25655697e-09       2.97872083e-07 
       2.65785944e-08       5.25655700e-09       2.97844202e-07 
      -2.75408403e-08       5.28443744e-09       2.97844192e-07 
      -2.65832156e-08       5.28443742e-09       2.97872073e-07 
       2.90665545e-08       5.94110176e-09       3.36608176e-07 
       2.80557098e-08       5.94110179e-09       3.36578571e-07 
      -2.90714119e-08       5.97070576e-09       3.36578560e-07 
      -2.80605672e-08       5.97070572e-09       3.36608164e-07 
       2.90665545e-08       5.94110176e-09       3.36608176e-07 
       2.80557098e-08       5.94110179e-09       3.36578571e-07 
      -2.90714119e-08       5.97070576e-09       3.36578560e-07 
      -2.80605672e-08       5.97070572e-09       3.36608164e-07 
       3.05604926e-08       6.66226359e-09       3.77413650e-07 
       2.94976934e-08       6.66226362e-09       3.77382322e-07 
      -3.05655874e-08       6.69359107e-09       3.77382309e-07 
      -2.95027884e-08       6.69359104e-09       3.77413637e-07 
       3.05604926e-08       6.66226359e-09       3.77413650e-07 
       2.94976934e-08       6.66226362e-09       3.77382322e-07 
      -3.05655874e-08       6.69359107e-09       3.77382309e-07 
      -2.95027884e-08       6.69359104e-09       3.77413637e-07 
       3.20180329e-08       7.41916108e-09       4.20238700e-07 
       3.09045451e-08       7.41916112e-09       4.20205648e-07 
      -3.20233668e-08       7.45221206e-09       4.20205634e-07 
      -3.09098791e-08       7.45221203e-09       4.20238686e-07 
       3.20180329e-08       7.41916108e-09       4.20238700e-07 
       3.09045451e-08       7.41916112e-09       4.20205648e-07 
      -3.20233668e-08       7.45221206e-09       4.20205634e-07 
      -3.09098791e-08       7.45221203e-09       4.20238686e-07 
       3.34391754e-08       8.21091301e-09       4.65033520e-07 
       3.22762648e-08       8.21091303e-09       4.64998745e-07 
      -3.34447499e-08       8.24568748e-09       4.64998730e-07 
      -3.22818392e-08       8.24568745e-09       4.65033505e-07 
       3.34391754e-08       8.21091301e-09       4.65033520e-07 
       3.22762648e-08       8.21091303e-09       4.64998745e-07 
      -3.34447499e-08       8.24568748e-09       4.64998730e-07 
      -3.22818392e-08       8.24568745e-09       4.65033505e-07 
       3.48239206e-08       9.03663802e-09       5.11748304e-07 
       3.36128525e-08       9.03663805e-09       5.11711805e-07 
      -3.48297369e-08       9.07313598e-09       5.11711789e-07 
      -3.36186687e-08       9.07313595e-09       5.11748288e-07 
       3.48239202e-08       9.03663801e-09       5.11748304e-07 
       3.36128525e-08       9.03663805e-09       5.11711805e-07 
      -3.48297371e-08       9.07313598e-09       5.11711789e-07 
      -3.36186690e-08       9.07313594e-09       5.11748288e-07 
       3.61744519e-08       9.89557353e-09       5.60334122e-07 
       3.49164178e-08       9.89557356e-09       5.60296103e-07 
      -3.61804258e-08       9.93359218e-09       5.60296085e-07 
      -3.49223916e-08       9.93359216e-09       5.60334104e-07 
       3.61744519e-08       9.89557353e-09       5.60334122e-07 
       3.49164178e-08       9.89557356e-09       5.60296103e-07 
      -3.61804258e-08       9.93359218e-09       5.60296085e-07 
      -3.49223916e-08       9.93359216e-09       5.60334104e-07 
       3.74928675e-08       1.07868232e-08       6.10746152e-07 
       3.61889838e-08       1.07868233e-08       6.10706612e-07 
      -3.74990008e-08       1.08263626e-08       6.10706593e-07 
      -3.61951171e-08       1.08263626e-08       6.10746133e-07 
       3.74928675e-08       1.07868232e-08       6.10746152e-07 
       3.61889838e-08       1.07868233e-08       6.10706612e-07 
      -3.74990008e-08       1.08263626e-08       6.10706593e-07 
      -3.61951171e-08       1.08263626e-08       6.10746133e-07 
       3.87791674e-08       1.17096095e-08       6.62940448e-07 
       3.74305515e-08       1.17096095e-08       6.62899387e-07 
      -3.87854611e-08       1.17506696e-08       6.62899367e-07 
      -3.74368447e-08       1.17506695e-08       6.62940428e-07 
       3.87791674e-08       1.17096095e-08       6.62940448e-07 
       3.74305515e-08       1.17096095e-08       6.62899387e-07 
      -3.87854611e-08       1.17506696e-08       6.62899367e-07 
      -3.74368447e-08       1.17506695e-08       6.62940428e-07 
       4.00333513e-08       1.26631547e-08       7.16873064e-07 
       3.86411192e-08       1.26631548e-08       7.16830482e-07 
      -4.00398079e-08       1.27057355e-08       7.16830461e-07 
      -3.86475763e-08       1.27057355e-08       7.16873042e-07 
       4.00333513e-08       1.26631547e-08       7.16873064e-07 
       3.86411192e-08       1.26631548e-08       7.16830482e-07 
      -4.00398079e-08       1.27057355e-08       7.16830461e-07 
      -3.86475763e-08       1.27057355e-08       7.16873042e-07 
       4.12554191e-08       1.36466814e-08       7.72500053e-07 
       3.98206881e-08       1.36466814e-08       7.72455950e-07 
      -4.12620413e-08       1.36907829e-08       7.72455928e-07 
      -3.98273103e-08       1.36907828e-08       7.72500030e-07 
       4.12554191e-08       1.36466814e-08       7.72500053e-07 
       3.98206881e-08       1.36466814e-08       7.72455950e-07 
      -4.12620413e-08       1.36907829e-08       7.72455928e-07 
      -3.98273103e-08       1.36907828e-08       7.72500030e-07 
       4.24453712e-08       1.46594117e-08       8.29777469e-07 
       4.09692578e-08       1.46594117e-08       8.29731846e-07 
      -4.24521605e-08       1.47050339e-08       8.29731821e-07 
      -4.09760470e-08       1.47050339e-08       8.29777444e-07 
       4.24453712e-08       1.46594117e-08       8.29777469e-07 
       4.09692578e-08       1.46594117e-08       8.29731846e-07 
      -4.24521605e-08       1.47050339e-08       8.29731821e-07 
      -4.09760470e-08       1.47050339e-08       8.29777444e-07 
       4.36032073e-08       1.57005682e-08       8.88661366e-07 
       4.20868287e-08       1.57005682e-08       8.88614222e-07 
      -4.36101653e-08       1.57477111e-08       8.88614196e-07 
      -4.20937867e-08       1.57477110e-08       8.88661340e-07 
       4.36032073e-08       1.57005682e-08       8.88661366e-07 
       4.20868287e-08       1.57005682e-08       8.88614222e-07 
      -4.36101653e-08       1.57477111e-08       8.88614196e-07 
      -4.20937867e-08       1.57477110e-08       8.88661340e-07 
       4.47289286e-08       1.67693731e-08       9.49107797e-07 
       4.31734009e-08       1.67693732e-08       9.49059132e-07 
      -4.47360557e-08       1.68180368e-08       9.49059105e-07 
      -4.31805285e-08       1.68180367e-08       9.49107770e-07 
       4.47289286e-08       1.67693731e-08       9.49107797e-07 
       4.31734009e-08       1.67693732e-08       9.49059132e-07 
      -4.47360557e-08       1.68180368e-08       9.49059105e-07 
      -4.31805285e-08       1.68180367e-08       9.49107770e-07 
       4.58225333e-08       1.78650490e-08       1.01107282e-06 
       4.42289738e-08       1.78650490e-08       1.01102263e-06 
      -4.58298328e-08       1.79152333e-08       1.01102260e-06 
      -4.42362733e-08       1.79152333e-08       1.01107279e-06 
       4.58225333e-08       1.78650490e-08       1.01107282e-06 
       4.42289738e-08       1.78650490e-08       1.01102263e-06 
      -4.58298328e-08       1.79152333e-08       1.01102260e-06 
      -4.42362733e-08       1.79152333e-08       1.01107279e-06 
       4.68840220e-08       1.89868182e-08       1.07451248e-06 
       4.52535476e-08       1.89868182e-08       1.07446077e-06 
      -4.68914960e-08       1.90385232e-08       1.07446074e-06 
      -4.52610212e-08       1.90385232e-08       1.07451245e-06 
       4.68840220e-08       1.89868182e-08       1.07451248e-06 
       4.52535471e-08       1.89868182e-08       1.07446077e-06 
      -4.68914960e-08       1.90385232e-08       1.07446074e-06 
      -4.52610212e-08       1.90385232e-08       1.07451245e-06 
       4.79155653e-08       2.01340217e-08       1.13938371e-06 
       4.62492178e-08       2.01340217e-08       1.13933069e-06 
      -4.79231570e-08       2.01870446e-08       1.13933066e-06 
      -4.62568090e-08       2.01870446e-08       1.13938368e-06 
       4.79155653e-08       2.01340217e-08       1.13938371e-06 
       4.62492178e-08       2.01340217e-08       1.13933069e-06 
      -4.79231570e-08       2.01870446e-08       1.13933066e-06 
      -4.62568090e-08       2.01870446e-08       1.13938368e-06 
       4.89192749e-08       2.13058669e-08       1.20564755e-06 
       4.72180219e-08       2.13058669e-08       1.20559321e-06 
      -4.89269860e-08       2.13602077e-08       1.20559318e-06 
      -4.72257331e-08       2.13602077e-08       1.20564752e-06 
       4.89192749e-08       2.13058669e-08       1.20564755e-06 
       4.72180219e-08       2.13058669e-08       1.20559321e-06 
      -4.89269860e-08       2.13602077e-08       1.20559318e-06 
      -4.72257331e-08       2.13602077e-08       1.20564752e-06 
       4.98951507e-08       2.25016799e-08       1.27326591e-06 
       4.81599605e-08       2.25016799e-08       1.27321025e-06 
      -4.99029822e-08       2.25573387e-08       1.27321022e-06 
      -4.81677924e-08       2.25573387e-08       1.27326588e-06 
       4.98951507e-08       2.25016799e-08       1.27326591e-06 
       4.81599605e-08       2.25016799e-08       1.27321025e-06 
      -4.99029822e-08       2.25573387e-08       1.27321022e-06 
      -4.81677924e-08       2.25573387e-08       1.27326588e-06 
       5.08431923e-08       2.37207868e-08       1.34220071e-06 
       4.90750329e-08       2.37207868e-08       1.34214374e-06 
      -5.08511473e-08       2.37777635e-08       1.34214370e-06 
      -4.90829879e-08       2.37777635e-08       1.34220068e-06 
       5.08431923e-08       2.37207868e-08       1.34220071e-06 
       4.90750329e-08       2.37207868e-08       1.34214374e-06 
      -5.08511473e-08       2.37777635e-08       1.34214370e-06 
      -4.90829879e-08       2.37777635e-08       1.34220068e-06 
       5.17634002e-08       2.49625136e-08       1.41241386e-06 
       4.99632393e-08       2.49625136e-08       1.41235556e-06 
      -5.17714804e-08       2.50208083e-08       1.41235553e-06 
      -4.99713195e-08       2.50208083e-08       1.41241382e-06 
       5.17634002e-08       2.49625136e-08       1.41241386e-06 
       4.99632393e-08       2.49625136e-08       1.41235556e-06 
      -5.17714804e-08       2.50208083e-08       1.41235553e-06 
      -4.99713195e-08       2.50208083e-08       1.41241382e-06 
       5.26557744e-08       2.62261865e-08       1.48386727e-06 
       5.08245797e-08       2.62261865e-08       1.48380766e-06 
      -5.26639816e-08       2.62857991e-08       1.48380762e-06 
      -5.08327869e-08       2.62857991e-08       1.48386723e-06 
       5.26557744e-08       2.62261865e-08       1.48386727e-06 
       5.08245797e-08       2.62261865e-08       1.48380766e-06 
      -5.26639816e-08       2.62857991e-08       1.48380762e-06 
      -5.08327869e-08       2.62857991e-08       1.48386723e-06 
       5.35203144e-08       2.75111314e-08       1.55652285e-06 
       5.16590539e-08       2.75111314e-08       1.55646192e-06 
      -5.35286504e-08       2.75720619e-08       1.55646188e-06 
      -5.16673899e-08       2.75720619e-08       1.55652281e-06 
       5.35203144e-08       2.75111314e-08       1.55652285e-06 
       5.16590539e-08       2.75111314e-08       1.55646192e-06 
      -5.35286504e-08       2.75720619e-08       1.55646188e-06 
      -5.16673899e-08       2.75720619e-08       1.55652281e-06 
       5.43570216e-08       2.88166744e-08       1.63034252e-06 
       5.24666630e-08       2.88166744e-08       1.63028027e-06 
      -5.43654863e-08       2.88789229e-08       1.63028024e-06 
      -5.24751282e-08       2.88789229e-08       1.63034249e-06 
       5.43570216e-08       2.88166744e-08       1.63034252e-06 
       5.24666630e-08       2.88166744e-08       1.63028027e-06 