# vtk DataFile Version 2.0
./output/onsasExample_nonLinearCantileverBlade_staitc3D_pitch numElements=10/onsasExample_nonLinearCantileverBlade_staitc3D_pitch numElements=10_0004.vtk
ASCII
DATASET UNSTRUCTURED_GRID

POINTS 800 float
      -1.973343e-25      -7.180703e-02      -7.180703e-02 
      -1.853981e-25       7.180703e-02      -7.180703e-02 
       1.973343e-25       7.180703e-02       7.180703e-02 
       1.853981e-25      -7.180703e-02       7.180703e-02 
       1.000000e-01      -7.180703e-02      -7.180703e-02 
       1.000000e-01       7.180703e-02      -7.180703e-02 
       1.000000e-01       7.180703e-02       7.180703e-02 
       1.000000e-01      -7.180703e-02       7.180703e-02 
       1.000000e-01      -7.180703e-02      -7.180703e-02 
       1.000000e-01       7.180703e-02      -7.180703e-02 
       1.000000e-01       7.180703e-02       7.180703e-02 
       1.000000e-01      -7.180703e-02       7.180703e-02 
       2.000000e-01      -7.180703e-02      -7.180703e-02 
       2.000000e-01       7.180703e-02      -7.180703e-02 
       2.000000e-01       7.180703e-02       7.180703e-02 
       2.000000e-01      -7.180703e-02       7.180703e-02 
       2.000000e-01      -7.180703e-02      -7.180703e-02 
       2.000000e-01       7.180703e-02      -7.180703e-02 
       2.000000e-01       7.180703e-02       7.180703e-02 
       2.000000e-01      -7.180703e-02       7.180703e-02 
       3.000000e-01      -7.180703e-02      -7.180703e-02 
       3.000000e-01       7.180703e-02      -7.180703e-02 
       3.000000e-01       7.180703e-02       7.180703e-02 
       3.000000e-01      -7.180703e-02       7.180703e-02 
       3.000000e-01      -7.180703e-02      -7.180703e-02 
       3.000000e-01       7.180703e-02      -7.180703e-02 
       3.000000e-01       7.180703e-02       7.180703e-02 
       3.000000e-01      -7.180703e-02       7.180703e-02 
       4.000000e-01      -7.180703e-02      -7.180703e-02 
       4.000000e-01       7.180703e-02      -7.180703e-02 
       4.000000e-01       7.180703e-02       7.180703e-02 
       4.000000e-01      -7.180703e-02       7.180703e-02 
       4.000000e-01      -7.180703e-02      -7.180703e-02 
       4.000000e-01       7.180703e-02      -7.180703e-02 
       4.000000e-01       7.180703e-02       7.180703e-02 
       4.000000e-01      -7.180703e-02       7.180703e-02 
       5.000000e-01      -7.180703e-02      -7.180703e-02 
       5.000000e-01       7.180703e-02      -7.180703e-02 
       5.000000e-01       7.180703e-02       7.180704e-02 
       5.000000e-01      -7.180703e-02       7.180704e-02 
       5.000000e-01      -7.180703e-02      -7.180703e-02 
       5.000000e-01       7.180703e-02      -7.180703e-02 
       5.000000e-01       7.180703e-02       7.180704e-02 
       5.000000e-01      -7.180703e-02       7.180704e-02 
       6.000000e-01      -7.180703e-02      -7.180703e-02 
       6.000000e-01       7.180703e-02      -7.180703e-02 
       6.000000e-01       7.180703e-02       7.180704e-02 
       6.000000e-01      -7.180703e-02       7.180704e-02 
       6.000000e-01      -7.180703e-02      -7.180703e-02 
       6.000000e-01       7.180703e-02      -7.180703e-02 
       6.000000e-01       7.180703e-02       7.180704e-02 
       6.000000e-01      -7.180703e-02       7.180704e-02 
       7.000000e-01      -7.180703e-02      -7.180703e-02 
       7.000000e-01       7.180703e-02      -7.180703e-02 
       7.000000e-01       7.180703e-02       7.180704e-02 
       7.000000e-01      -7.180703e-02       7.180704e-02 
       7.000000e-01      -7.180703e-02      -7.180703e-02 
       7.000000e-01       7.180703e-02      -7.180703e-02 
       7.000000e-01       7.180703e-02       7.180704e-02 
       7.000000e-01      -7.180703e-02       7.180704e-02 
       8.000000e-01      -7.180703e-02      -7.180703e-02 
       8.000000e-01       7.180703e-02      -7.180703e-02 
       8.000000e-01       7.180703e-02       7.180704e-02 
       8.000000e-01      -7.180703e-02       7.180704e-02 
       8.000000e-01      -7.180703e-02      -7.180703e-02 
       8.000000e-01       7.180703e-02      -7.180703e-02 
       8.000000e-01       7.180703e-02       7.180704e-02 
       8.000000e-01      -7.180703e-02       7.180704e-02 
       9.000000e-01      -7.180703e-02      -7.180702e-02 
       9.000000e-01       7.180703e-02      -7.180702e-02 
       9.000000e-01       7.180703e-02       7.180704e-02 
       9.000000e-01      -7.180703e-02       7.180704e-02 
       9.000000e-01      -7.180703e-02      -7.180702e-02 
       9.000000e-01       7.180703e-02      -7.180702e-02 
       9.000000e-01       7.180703e-02       7.180704e-02 
       9.000000e-01      -7.180703e-02       7.180704e-02 
       1.000000e+00      -7.180703e-02      -7.180702e-02 
       1.000000e+00       7.180703e-02      -7.180702e-02 
       1.000000e+00       7.180703e-02       7.180704e-02 
       1.000000e+00      -7.180703e-02       7.180704e-02 
       1.000000e+00      -7.180703e-02      -7.180702e-02 
       1.000000e+00       7.180703e-02      -7.180702e-02 
       1.000000e+00       7.180703e-02       7.180704e-02 
       1.000000e+00      -7.180703e-02       7.180704e-02 
       1.100000e+00      -7.180703e-02      -7.180702e-02 
       1.100000e+00       7.180703e-02      -7.180702e-02 
       1.100000e+00       7.180703e-02       7.180705e-02 
       1.100000e+00      -7.180703e-02       7.180705e-02 
       1.100000e+00      -7.180703e-02      -7.180702e-02 
       1.100000e+00       7.180703e-02      -7.180702e-02 
       1.100000e+00       7.180703e-02       7.180705e-02 
       1.100000e+00      -7.180703e-02       7.180705e-02 
       1.200000e+00      -7.180703e-02      -7.180702e-02 
       1.200000e+00       7.180703e-02      -7.180702e-02 
       1.200000e+00       7.180703e-02       7.180705e-02 
       1.200000e+00      -7.180703e-02       7.180705e-02 
       1.200000e+00      -7.180703e-02      -7.180702e-02 
       1.200000e+00       7.180703e-02      -7.180702e-02 
       1.200000e+00       7.180703e-02       7.180705e-02 
       1.200000e+00      -7.180703e-02       7.180705e-02 
       1.300000e+00      -7.180703e-02      -7.180701e-02 
       1.300000e+00       7.180703e-02      -7.180701e-02 
       1.300000e+00       7.180703e-02       7.180705e-02 
       1.300000e+00      -7.180703e-02       7.180705e-02 
       1.300000e+00      -7.180703e-02      -7.180701e-02 
       1.300000e+00       7.180703e-02      -7.180701e-02 
       1.300000e+00       7.180703e-02       7.180705e-02 
       1.300000e+00      -7.180703e-02       7.180705e-02 
       1.400000e+00      -7.180703e-02      -7.180701e-02 
       1.400000e+00       7.180703e-02      -7.180701e-02 
       1.400000e+00       7.180703e-02       7.180705e-02 
       1.400000e+00      -7.180703e-02       7.180705e-02 
       1.400000e+00      -7.180703e-02      -7.180701e-02 
       1.400000e+00       7.180703e-02      -7.180701e-02 
       1.400000e+00       7.180703e-02       7.180705e-02 
       1.400000e+00      -7.180703e-02       7.180705e-02 
       1.500000e+00      -7.180703e-02      -7.180701e-02 
       1.500000e+00       7.180703e-02      -7.180701e-02 
       1.500000e+00       7.180703e-02       7.180706e-02 
       1.500000e+00      -7.180703e-02       7.180706e-02 
       1.500000e+00      -7.180703e-02      -7.180701e-02 
       1.500000e+00       7.180703e-02      -7.180701e-02 
       1.500000e+00       7.180703e-02       7.180706e-02 
       1.500000e+00      -7.180703e-02       7.180706e-02 
       1.600000e+00      -7.180703e-02      -7.180701e-02 
       1.600000e+00       7.180703e-02      -7.180701e-02 
       1.600000e+00       7.180703e-02       7.180706e-02 
       1.600000e+00      -7.180703e-02       7.180706e-02 
       1.600000e+00      -7.180703e-02      -7.180701e-02 
       1.600000e+00       7.180703e-02      -7.180701e-02 
       1.600000e+00       7.180703e-02       7.180706e-02 
       1.600000e+00      -7.180703e-02       7.180706e-02 
       1.700000e+00      -7.180703e-02      -7.180700e-02 
       1.700000e+00       7.180703e-02      -7.180700e-02 
       1.700000e+00       7.180703e-02       7.180706e-02 
       1.700000e+00      -7.180703e-02       7.180706e-02 
       1.700000e+00      -7.180703e-02      -7.180700e-02 
       1.700000e+00       7.180703e-02      -7.180700e-02 
       1.700000e+00       7.180703e-02       7.180706e-02 
       1.700000e+00      -7.180703e-02       7.180706e-02 
       1.800000e+00      -7.180703e-02      -7.180700e-02 
       1.800000e+00       7.180703e-02      -7.180700e-02 
       1.800000e+00       7.180703e-02       7.180707e-02 
       1.800000e+00      -7.180703e-02       7.180707e-02 
       1.800000e+00      -7.180703e-02      -7.180700e-02 
       1.800000e+00       7.180703e-02      -7.180700e-02 
       1.800000e+00       7.180703e-02       7.180707e-02 
       1.800000e+00      -7.180703e-02       7.180707e-02 
       1.900000e+00      -7.180703e-02      -7.180700e-02 
       1.900000e+00       7.180703e-02      -7.180700e-02 
       1.900000e+00       7.180703e-02       7.180707e-02 
       1.900000e+00      -7.180703e-02       7.180707e-02 
       1.900000e+00      -7.180703e-02      -7.180700e-02 
       1.900000e+00       7.180703e-02      -7.180700e-02 
       1.900000e+00       7.180703e-02       7.180707e-02 
       1.900000e+00      -7.180703e-02       7.180707e-02 
       2.000000e+00      -7.180703e-02      -7.180699e-02 
       2.000000e+00       7.180703e-02      -7.180699e-02 
       2.000000e+00       7.180703e-02       7.180707e-02 
       2.000000e+00      -7.180703e-02       7.180707e-02 
       2.000000e+00      -7.180703e-02      -7.180699e-02 
       2.000000e+00       7.180703e-02      -7.180699e-02 
       2.000000e+00       7.180703e-02       7.180707e-02 
       2.000000e+00      -7.180703e-02       7.180707e-02 
       2.100000e+00      -7.180703e-02      -7.180699e-02 
[...]
POINT_DATA       800 
VECTORS Displacements float
      -1.97334281e-25      -1.38777878e-17       0.00000000e+00 
      -1.85398142e-25       1.38777878e-17       0.00000000e+00 
       1.97334281e-25       1.38777878e-17       0.00000000e+00 
       1.85398142e-25      -1.38777878e-17       0.00000000e+00 
       1.68284317e-10       6.16687257e-13       1.16937474e-10 
       1.66213002e-10       6.16715012e-13       1.16723978e-10 
      -1.68286524e-10       8.30224778e-13       1.16723992e-10 
      -1.66215208e-10       8.30183144e-13       1.16937487e-10 
       1.68284317e-10       6.16687257e-13       1.16937474e-10 
       1.66213002e-10       6.16715012e-13       1.16723978e-10 
      -1.68286524e-10       8.30224778e-13       1.16723992e-10 
      -1.66215208e-10       8.30183144e-13       1.16937487e-10 
       3.33335110e-10       2.66182909e-12       4.64552841e-10 
       3.29232280e-10       2.66185685e-12       4.64125877e-10 
      -3.33339523e-10       3.08882087e-12       4.64125890e-10 
      -3.29236693e-10       3.08879311e-12       4.64552855e-10 
       3.33335110e-10       2.66182909e-12       4.64552841e-10 
       3.29232280e-10       2.66185685e-12       4.64125877e-10 
      -3.33339523e-10       3.08882087e-12       4.64125890e-10 
      -3.29236693e-10       3.08879311e-12       4.64552855e-10 
       4.95152364e-10       6.10766993e-12       1.03837074e-09 
       4.89057850e-10       6.10769768e-12       1.03773028e-09 
      -4.95158969e-10       6.74815759e-12       1.03773028e-09 
      -4.89064456e-10       6.74812983e-12       1.03837074e-09 
       4.95152364e-10       6.10766993e-12       1.03837074e-09 
       4.89057850e-10       6.10769768e-12       1.03773028e-09 
      -4.95158969e-10       6.74815759e-12       1.03773028e-09 
      -4.89064456e-10       6.74812983e-12       1.03837074e-09 
       6.53736121e-10       1.09265236e-11       1.83391577e-09 
       6.45689668e-10       1.09265652e-11       1.83306184e-09 
      -6.53744947e-10       1.17804932e-11       1.83306184e-09 
      -6.45698495e-10       1.17804516e-11       1.83391577e-09 
       6.53736121e-10       1.09265236e-11       1.83391577e-09 
       6.45689668e-10       1.09265652e-11       1.83306184e-09 
      -6.53744947e-10       1.17804932e-11       1.83306184e-09 
      -6.45698495e-10       1.17804516e-11       1.83391577e-09 
       8.09086242e-10       1.70906622e-11       2.84671259e-09 
       7.99127653e-10       1.70906900e-11       2.84564516e-09 
      -8.09097345e-10       1.81581139e-11       2.84564516e-09 
      -7.99138755e-10       1.81580861e-11       2.84671259e-09 
       8.09086242e-10       1.70906622e-11       2.84671259e-09 
       7.99127653e-10       1.70906900e-11       2.84564516e-09 
      -8.09097345e-10       1.81581139e-11       2.84564516e-09 
      -7.99138755e-10       1.81580861e-11       2.84671259e-09 
       9.61202895e-10       2.45723580e-11       4.07228581e-09 
       9.49371914e-10       2.45723858e-11       4.07100489e-09 
      -9.61216218e-10       2.58533056e-11       4.07100489e-09 
      -9.49385237e-10       2.58532779e-11       4.07228581e-09 
       9.61202895e-10       2.45723580e-11       4.07228581e-09 
       9.49371914e-10       2.45723858e-11       4.07100489e-09 
      -9.61216218e-10       2.58533056e-11       4.07100489e-09 
      -9.49385237e-10       2.58532779e-11       4.07228581e-09 
       1.11008602e-09       3.33439387e-11       5.50616008e-09 
       1.09642262e-09       3.33439804e-11       5.50466568e-09 
      -1.11010157e-09       3.48383683e-11       5.50466568e-09 
      -1.09643816e-09       3.48383267e-11       5.50616007e-09 
       1.11008602e-09       3.33439387e-11       5.50616008e-09 
       1.09642262e-09       3.33439804e-11       5.50466568e-09 
      -1.11010157e-09       3.48383683e-11       5.50466568e-09 
      -1.09643816e-09       3.48383267e-11       5.50616007e-09 
       1.25573563e-09       4.33776626e-11       7.14386000e-09 
       1.24027943e-09       4.33776903e-11       7.14215212e-09 
      -1.25575339e-09       4.50855742e-11       7.14215211e-09 
      -1.24029720e-09       4.50855464e-11       7.14385999e-09 
       1.25573563e-09       4.33776626e-11       7.14386000e-09 
       1.24027943e-09       4.33776903e-11       7.14215212e-09 
      -1.25575339e-09       4.50855742e-11       7.14215211e-09 
      -1.24029720e-09       4.50855464e-11       7.14385999e-09 
       1.39815171e-09       5.46458295e-11       8.98091021e-09 
       1.38094258e-09       5.46458573e-11       8.97898886e-09 
      -1.39817169e-09       5.65672093e-11       8.97898884e-09 
      -1.38096257e-09       5.65671815e-11       8.98091020e-09 
       1.39815171e-09       5.46458295e-11       8.98091021e-09 
       1.38094258e-09       5.46458573e-11       8.97898886e-09 
      -1.39817169e-09       5.65672093e-11       8.97898884e-09 
      -1.38096257e-09       5.65671815e-11       8.98091020e-09 
       1.53733426e-09       6.71206979e-11       1.10128354e-08 
       1.51841206e-09       6.71207395e-11       1.10107005e-08 
      -1.53735646e-09       6.92555874e-11       1.10107005e-08 
      -1.51843416e-09       6.92555457e-11       1.10128354e-08 
       1.53733426e-09       6.71207118e-11       1.10128354e-08 
       1.51841206e-09       6.71207118e-11       1.10107005e-08 
      -1.53735646e-09       6.92555596e-11       1.10107005e-08 
      -1.51843427e-09       6.92555596e-11       1.10128353e-08 
       1.67345382e-09       8.07863221e-11       1.32352273e-08 
       1.65285607e-09       8.07863221e-11       1.32329015e-08 
      -1.67347758e-09       8.31121838e-11       1.32329015e-08 
      -1.65288006e-09       8.31121838e-11       1.32352273e-08 
       1.67345382e-09       8.07863221e-11       1.32352273e-08 
       1.65285607e-09       8.07863221e-11       1.32329015e-08 
      -1.67347758e-09       8.31121838e-11       1.32329015e-08 
      -1.65288006e-09       8.31121838e-11       1.32352273e-08 
       1.80668036e-09       9.56061619e-11       1.56440146e-08 
       1.78444282e-09       9.56061619e-11       1.56414977e-08 
      -1.80670523e-09       9.81230375e-11       1.56414977e-08 
      -1.78446791e-09       9.81230375e-11       1.56440146e-08 
       1.80668036e-09       9.56061619e-11       1.56440146e-08 
       1.78444282e-09       9.56061619e-11       1.56414977e-08 
      -1.80670523e-09       9.81230375e-11       1.56414977e-08 
      -1.78446791e-09       9.81230375e-11       1.56440146e-08 
       1.93701344e-09       1.11555404e-10       1.82351928e-08 
       1.91317184e-09       1.11555404e-10       1.82324850e-08 
      -1.93704008e-09       1.14263293e-10       1.82324849e-08 
      -1.91319827e-09       1.14263293e-10       1.82351928e-08 
       1.93701344e-09       1.11555404e-10       1.82351928e-08 
       1.91317184e-09       1.11555404e-10       1.82324850e-08 
      -1.93704008e-09       1.14263293e-10       1.82324849e-08 
      -1.91319827e-09       1.14263293e-10       1.82351928e-08 
       2.06445372e-09       1.28609276e-10       2.10047578e-08 
       2.03904338e-09       1.28609276e-10       2.10018589e-08 
      -2.06448147e-09       1.31508179e-10       2.10018588e-08 
      -2.03907113e-09       1.31508179e-10       2.10047577e-08 
       2.06445372e-09       1.28609276e-10       2.10047578e-08 
       2.03904338e-09       1.28609276e-10       2.10018589e-08 
      -2.06448147e-09       1.31508179e-10       2.10018588e-08 
      -2.03907113e-09       1.31508179e-10       2.10047577e-08 
       2.18900054e-09       1.46742965e-10       2.39487052e-08 
       2.16205720e-09       1.46742965e-10       2.39456153e-08 
      -2.18903007e-09       1.49832882e-10       2.39456152e-08 
      -2.16208695e-09       1.49832882e-10       2.39487051e-08 
       2.18900054e-09       1.46742965e-10       2.39487052e-08 
       2.16205720e-09       1.46742965e-10       2.39456153e-08 
      -2.18903007e-09       1.49832882e-10       2.39456152e-08 
      -2.16208695e-09       1.49832882e-10       2.39487051e-08 
       2.31065433e-09       1.65931713e-10       2.70630307e-08 
       2.28221353e-09       1.65931713e-10       2.70597498e-08 
      -2.31068542e-09       1.69212644e-10       2.70597497e-08 
      -2.28224484e-09       1.69212644e-10       2.70630307e-08 
       2.31065433e-09       1.65931713e-10       2.70630307e-08 
       2.28221353e-09       1.65931713e-10       2.70597498e-08 
      -2.31068542e-09       1.69212644e-10       2.70597497e-08 
      -2.28224484e-09       1.69212644e-10       2.70630307e-08 
       2.42941467e-09       1.86150678e-10       3.03437302e-08 
       2.39951237e-09       1.86150678e-10       3.03402582e-08 
      -2.42944753e-09       1.89622623e-10       3.03402582e-08 
      -2.39954523e-09       1.89622623e-10       3.03437301e-08 
       2.42941467e-09       1.86150678e-10       3.03437302e-08 
       2.39951237e-09       1.86150678e-10       3.03402582e-08 
      -2.42944753e-09       1.89622623e-10       3.03402582e-08 
      -2.39954523e-09       1.89622623e-10       3.03437301e-08 
       2.54528243e-09       2.07375089e-10       3.37867992e-08 
       2.51395371e-09       2.07375089e-10       3.37831362e-08 
      -2.54531640e-09       2.11038034e-10       3.37831362e-08 
      -2.51398791e-09       2.11038034e-10       3.37867991e-08 
       2.54528243e-09       2.07375089e-10       3.37867992e-08 
       2.51395371e-09       2.07375089e-10       3.37831362e-08 
      -2.54531640e-09       2.11038034e-10       3.37831362e-08 
      -2.51398791e-09       2.11038034e-10       3.37867991e-08 
       2.65825650e-09       2.29580133e-10       3.73882335e-08 
       2.62553757e-09       2.29580133e-10       3.73843796e-08 
      -2.65829225e-09       2.33434105e-10       3.73843795e-08 
      -2.62557309e-09       2.33434105e-10       3.73882334e-08 
       2.65825650e-09       2.29580133e-10       3.73882335e-08 
       2.62553757e-09       2.29580133e-10       3.73843796e-08 
      -2.65829225e-09       2.33434105e-10       3.73843795e-08 
      -2.62557309e-09       2.33434105e-10       3.73882334e-08 
       2.76833756e-09       2.52741036e-10       4.11440289e-08 
       2.73426348e-09       2.52741036e-10       4.11399839e-08 
      -2.76837486e-09       2.56786023e-10       4.11399838e-08 
      -2.73430079e-09       2.56786023e-10       4.11440288e-08 
       2.76833756e-09       2.52741050e-10       4.11440289e-08 
       2.73426348e-09       2.52741078e-10       4.11399839e-08 
      -2.76837486e-09       2.56786037e-10       4.11399839e-08 
      -2.73430101e-09       2.56786009e-10       4.11440288e-08 
       2.87569568e-09       2.76844728e-10       4.50502484e-08 
       2.84030044e-09       2.76844755e-10       4.50460348e-08 
      -2.87573432e-09       2.81058274e-10       4.50460347e-08 
      -2.84033908e-09       2.81058246e-10       4.50502483e-08 
       2.87569568e-09       2.76844728e-10       4.50502484e-08 
       2.84030044e-09       2.76844755e-10       4.50460348e-08 
      -2.87573432e-09       2.81058274e-10       4.50460347e-08 
      -2.84033908e-09       2.81058246e-10       4.50502483e-08 
       2.98050118e-09       3.01857581e-10       4.91032913e-08 
       2.94381586e-09       3.01857622e-10       4.90989093e-08 
      -2.98054115e-09       3.06239673e-10       4.90989092e-08 
      -2.94385583e-09       3.06239631e-10       4.91032912e-08 
       2.98050118e-09       3.01857581e-10       4.91032913e-08 
       2.94381586e-09       3.01857622e-10       4.90989093e-08 
      -2.98054115e-09       3.06239673e-10       4.90989092e-08 
      -2.94385583e-09       3.06239631e-10       4.91032912e-08 
       3.08275450e-09       3.27757738e-10       5.32996247e-08 
       3.04481063e-09       3.27757765e-10       5.32950741e-08 
      -3.08279446e-09       3.32308348e-10       5.32950740e-08 
      -3.04485059e-09       3.32308320e-10       5.32996246e-08 
       3.08275450e-09       3.27757738e-10       5.32996247e-08 
       3.04481063e-09       3.27757765e-10       5.32950741e-08 
      -3.08279446e-09       3.32308348e-10       5.32950740e-08 
      -3.04485059e-09       3.32308320e-10       5.32996246e-08 
       3.18245474e-09       3.54523300e-10       5.76357153e-08 
       3.14328341e-09       3.54523327e-10       5.76309961e-08 
      -3.18249560e-09       3.59242469e-10       5.76309960e-08 
      -3.14332471e-09       3.59242441e-10       5.76357152e-08 
       3.18245474e-09       3.54523300e-10       5.76357153e-08 
       3.14328341e-09       3.54523327e-10       5.76309961e-08 
      -3.18249560e-09       3.59242469e-10       5.76309960e-08 
      -3.14332471e-09       3.59242441e-10       5.76357152e-08 
       3.27960148e-09       3.82132423e-10       6.21080299e-08 
       3.23923466e-09       3.82132451e-10       6.21031422e-08 
      -3.27964411e-09       3.87020124e-10       6.21031421e-08 
      -3.23927729e-09       3.87020097e-10       6.21080298e-08 
       3.27960148e-09       3.82132423e-10       6.21080299e-08 
       3.23923466e-09       3.82132451e-10       6.21031422e-08 
      -3.27964411e-09       3.87020124e-10       6.21031421e-08 
      -3.23927729e-09       3.87020097e-10       6.21080298e-08 
       3.37419559e-09       4.10563181e-10       6.67130353e-08 
       3.33266481e-09       4.10563222e-10       6.67079791e-08 
      -3.37423955e-09       4.15619428e-10       6.67079789e-08 
      -3.33270878e-09       4.15619386e-10       6.67130352e-08 
       3.37419559e-09       4.10563181e-10       6.67130353e-08 
       3.33266481e-09       4.10563222e-10       6.67079791e-08 
      -3.37423955e-09       4.15619428e-10       6.67079789e-08 
      -3.33270878e-09       4.15619386e-10       6.67130352e-08 
       3.46623708e-09       4.39793729e-10       7.14471983e-08 
       3.42357342e-09       4.39793757e-10       7.14419736e-08 
      -3.46628237e-09       4.45018522e-10       7.14419734e-08 
      -3.42361872e-09       4.45018494e-10       7.14471982e-08 
       3.46623708e-09       4.39793729e-10       7.14471983e-08 
       3.42357342e-09       4.39793757e-10       7.14419736e-08 
      -3.46628237e-09       4.45018522e-10       7.14419734e-08 
      -3.42361872e-09       4.45018494e-10       7.14471982e-08 
       3.55572682e-09       4.69802197e-10       7.63069858e-08 
       3.51196139e-09       4.69802225e-10       7.63015925e-08 
      -3.55577168e-09       4.75195522e-10       7.63015924e-08 
      -3.51200669e-09       4.75195494e-10       7.63069857e-08 
       3.55572682e-09       4.69802197e-10       7.63069858e-08 
       3.51196139e-09       4.69802225e-10       7.63015925e-08 
      -3.55577168e-09       4.75195522e-10       7.63015924e-08 
      -3.51200669e-09       4.75195494e-10       7.63069857e-08 
       3.64266262e-09       5.00566685e-10       8.12888646e-08 
       3.59782737e-09       5.00566713e-10       8.12833027e-08 
      -3.64270925e-09       5.06128542e-10       8.12833026e-08 
      -3.59787355e-09       5.06128514e-10       8.12888644e-08 
       3.64266262e-09       5.00566685e-10       8.12888646e-08 
       3.59782737e-09       5.00566713e-10       8.12833027e-08 
      -3.64270925e-09       5.06128542e-10       8.12833026e-08 
      -3.59787355e-09       5.06128514e-10       8.12888644e-08 
       3.72704578e-09       5.32065295e-10       8.63893014e-08 
       3.68117181e-09       5.32065336e-10       8.63835710e-08 
      -3.72709374e-09       5.37795725e-10       8.63835708e-08 
      -3.68121977e-09       5.37795683e-10       8.63893012e-08 
       3.72704578e-09       5.32065295e-10       8.63893014e-08 
       3.68117181e-09       5.32065322e-10       8.63835710e-08 
      -3.72709374e-09       5.37795711e-10       8.63835708e-08 
      -3.68121977e-09       5.37795683e-10       8.63893012e-08 
       3.80904641e-09       5.64287922e-10       9.16048304e-08 
       3.76216303e-09       5.64287964e-10       9.15989539e-08 
      -3.80909526e-09       5.70164402e-10       9.15989537e-08 
      -3.76221188e-09       5.70164360e-10       9.16048302e-08 
       3.80904641e-09       5.64287922e-10       9.16048304e-08 
       3.76216303e-09       5.64287964e-10       9.15989539e-08 
      -3.80909526e-09       5.70164402e-10       9.15989537e-08 
      -3.76221188e-09       5.70164360e-10       9.16048302e-08 
       3.88883503e-09       5.97203842e-10       9.69323222e-08 
       3.84096932e-09       5.97203870e-10       9.69262996e-08 
      -3.88888477e-09       6.03226386e-10       9.69262994e-08 
      -3.84101906e-09       6.03226358e-10       9.69323220e-08 
       3.88883503e-09       5.97203842e-10       9.69323222e-08 
       3.84096932e-09       5.97203870e-10       9.69262996e-08 
      -3.88888477e-09       6.03226386e-10       9.69262994e-08 
      -3.84101906e-09       6.03226358e-10       9.69323220e-08 
       3.96641120e-09       6.30794111e-10       1.02368715e-07 
       3.91759070e-09       6.30794153e-10       1.02362546e-07 
      -3.96646094e-09       6.36962746e-10       1.02362546e-07 
      -3.91764088e-09       6.36962705e-10       1.02368714e-07 
       3.96641120e-09       6.30794111e-10       1.02368715e-07 
       3.91759070e-09       6.30794153e-10       1.02362546e-07 
      -3.96646094e-09       6.36962746e-10       1.02362546e-07 
      -3.91764088e-09       6.36962705e-10       1.02368714e-07 
       4.04177447e-09       6.65039773e-10       1.07910946e-07 
       3.99202671e-09       6.65039801e-10       1.07904631e-07 
      -4.04182554e-09       6.71354444e-10       1.07904631e-07 
      -3.99207734e-09       6.71354417e-10       1.07910945e-07 
       4.04177447e-09       6.65039773e-10       1.07910946e-07 
       3.99202671e-09       6.65039801e-10       1.07904631e-07 
      -4.04182554e-09       6.71354444e-10       1.07904631e-07 
      -3.99207734e-09       6.71354417e-10       1.07910945e-07 
       4.11492573e-09       6.99921857e-10       1.13555953e-07 
       4.06427736e-09       6.99921884e-10       1.13549493e-07 
      -4.11497769e-09       7.06382605e-10       1.13549492e-07 
      -4.06432932e-09       7.06382577e-10       1.13555953e-07 
       4.11492573e-09       6.99921857e-10       1.13555953e-07 
       4.06427736e-09       6.99921884e-10       1.13549493e-07 
      -4.11497769e-09       7.06382605e-10       1.13549492e-07 
      -4.06432932e-09       7.06382577e-10       1.13555953e-07 
       4.18586454e-09       7.35421390e-10       1.19300675e-07 
       4.13434265e-09       7.35421418e-10       1.19294068e-07 
      -4.18591739e-09       7.42028217e-10       1.19294068e-07 
      -4.13439549e-09       7.42028189e-10       1.19300675e-07 
       4.18586454e-09       7.35421390e-10       1.19300675e-07 
       4.13434265e-09       7.35421418e-10       1.19294068e-07 
      -4.18591739e-09       7.42028217e-10       1.19294068e-07 
      -4.13439549e-09       7.42028189e-10       1.19300675e-07 
       4.25459046e-09       7.71519446e-10       1.25142050e-07 
       4.20222301e-09       7.71519473e-10       1.25135297e-07 
      -4.25464464e-09       7.78272322e-10       1.25135296e-07 
      -4.20227719e-09       7.78272294e-10       1.25142049e-07 
       4.25459046e-09       7.71519446e-10       1.25142050e-07 
       4.20222301e-09       7.71519473e-10       1.25135297e-07 
      -4.25464464e-09       7.78272322e-10       1.25135296e-07 
      -4.20227719e-09       7.78272294e-10       1.25142049e-07 
       4.32110481e-09       8.08197009e-10       1.31077014e-07 
       4.26791891e-09       8.08197037e-10       1.31070115e-07 
      -4.32115854e-09       8.15095963e-10       1.31070115e-07 
      -4.26797264e-09       8.15095935e-10       1.31077014e-07 
       4.32110481e-09       8.08197009e-10       1.31077014e-07 
       4.26791891e-09       8.08197037e-10       1.31070115e-07 