# vtk DataFile Version 2.0
./output/onsasExample_nonLinearCantileverBlade_staitc3D_pitch numElements=10/onsasExample_nonLinearCantileverBlade_staitc3D_pitch numElements=10_0015.vtk
ASCII
DATASET UNSTRUCTURED_GRID

POINTS 800 float
       1.276329e-25      -7.180703e-02      -7.180703e-02 
      -6.353969e-25       7.180703e-02      -7.180703e-02 
      -1.276329e-25       7.180703e-02       7.180703e-02 
       6.353969e-25      -7.180703e-02       7.180703e-02 
       1.000000e-01      -7.180703e-02      -7.180703e-02 
       1.000000e-01       7.180703e-02      -7.180703e-02 
       1.000000e-01       7.180703e-02       7.180704e-02 
       1.000000e-01      -7.180703e-02       7.180704e-02 
       1.000000e-01      -7.180703e-02      -7.180703e-02 
       1.000000e-01       7.180703e-02      -7.180703e-02 
       1.000000e-01       7.180703e-02       7.180704e-02 
       1.000000e-01      -7.180703e-02       7.180704e-02 
       2.000000e-01      -7.180703e-02      -7.180702e-02 
       2.000000e-01       7.180703e-02      -7.180702e-02 
       2.000000e-01       7.180703e-02       7.180704e-02 
       2.000000e-01      -7.180703e-02       7.180704e-02 
       2.000000e-01      -7.180703e-02      -7.180702e-02 
       2.000000e-01       7.180703e-02      -7.180702e-02 
       2.000000e-01       7.180703e-02       7.180704e-02 
       2.000000e-01      -7.180703e-02       7.180704e-02 
       3.000000e-01      -7.180703e-02      -7.180701e-02 
       3.000000e-01       7.180703e-02      -7.180701e-02 
       3.000000e-01       7.180703e-02       7.180706e-02 
       3.000000e-01      -7.180703e-02       7.180706e-02 
       3.000000e-01      -7.180703e-02      -7.180701e-02 
       3.000000e-01       7.180703e-02      -7.180701e-02 
       3.000000e-01       7.180703e-02       7.180706e-02 
       3.000000e-01      -7.180703e-02       7.180706e-02 
       4.000000e-01      -7.180703e-02      -7.180699e-02 
       4.000000e-01       7.180703e-02      -7.180699e-02 
       4.000000e-01       7.180703e-02       7.180708e-02 
       4.000000e-01      -7.180703e-02       7.180708e-02 
       4.000000e-01      -7.180703e-02      -7.180699e-02 
       4.000000e-01       7.180703e-02      -7.180699e-02 
       4.000000e-01       7.180703e-02       7.180708e-02 
       4.000000e-01      -7.180703e-02       7.180708e-02 
       5.000000e-01      -7.180703e-02      -7.180697e-02 
       5.000000e-01       7.180703e-02      -7.180697e-02 
       5.000000e-01       7.180703e-02       7.180710e-02 
       5.000000e-01      -7.180703e-02       7.180710e-02 
       5.000000e-01      -7.180703e-02      -7.180697e-02 
       5.000000e-01       7.180703e-02      -7.180697e-02 
       5.000000e-01       7.180703e-02       7.180710e-02 
       5.000000e-01      -7.180703e-02       7.180710e-02 
       6.000000e-01      -7.180703e-02      -7.180694e-02 
       6.000000e-01       7.180704e-02      -7.180694e-02 
       6.000000e-01       7.180704e-02       7.180713e-02 
       6.000000e-01      -7.180703e-02       7.180713e-02 
       6.000000e-01      -7.180703e-02      -7.180694e-02 
       6.000000e-01       7.180704e-02      -7.180694e-02 
       6.000000e-01       7.180704e-02       7.180713e-02 
       6.000000e-01      -7.180703e-02       7.180713e-02 
       7.000000e-01      -7.180703e-02      -7.180690e-02 
       7.000000e-01       7.180704e-02      -7.180690e-02 
       7.000000e-01       7.180704e-02       7.180716e-02 
       7.000000e-01      -7.180703e-02       7.180716e-02 
       7.000000e-01      -7.180703e-02      -7.180690e-02 
       7.000000e-01       7.180704e-02      -7.180690e-02 
       7.000000e-01       7.180704e-02       7.180716e-02 
       7.000000e-01      -7.180703e-02       7.180716e-02 
       8.000000e-01      -7.180703e-02      -7.180686e-02 
       8.000000e-01       7.180704e-02      -7.180686e-02 
       8.000000e-01       7.180704e-02       7.180720e-02 
       8.000000e-01      -7.180703e-02       7.180720e-02 
       8.000000e-01      -7.180703e-02      -7.180686e-02 
       8.000000e-01       7.180704e-02      -7.180686e-02 
       8.000000e-01       7.180704e-02       7.180720e-02 
       8.000000e-01      -7.180703e-02       7.180720e-02 
       9.000000e-01      -7.180703e-02      -7.180682e-02 
       9.000000e-01       7.180704e-02      -7.180682e-02 
       9.000000e-01       7.180704e-02       7.180724e-02 
       9.000000e-01      -7.180703e-02       7.180725e-02 
       9.000000e-01      -7.180703e-02      -7.180682e-02 
       9.000000e-01       7.180704e-02      -7.180682e-02 
       9.000000e-01       7.180704e-02       7.180724e-02 
       9.000000e-01      -7.180703e-02       7.180725e-02 
       1.000000e+00      -7.180703e-02      -7.180677e-02 
       1.000000e+00       7.180704e-02      -7.180677e-02 
       1.000000e+00       7.180704e-02       7.180729e-02 
       1.000000e+00      -7.180703e-02       7.180729e-02 
       1.000000e+00      -7.180703e-02      -7.180677e-02 
       1.000000e+00       7.180704e-02      -7.180677e-02 
       1.000000e+00       7.180704e-02       7.180729e-02 
       1.000000e+00      -7.180703e-02       7.180729e-02 
       1.100000e+00      -7.180702e-02      -7.180672e-02 
       1.100000e+00       7.180704e-02      -7.180672e-02 
       1.100000e+00       7.180704e-02       7.180735e-02 
       1.100000e+00      -7.180702e-02       7.180735e-02 
       1.100000e+00      -7.180702e-02      -7.180672e-02 
       1.100000e+00       7.180704e-02      -7.180672e-02 
       1.100000e+00       7.180704e-02       7.180735e-02 
       1.100000e+00      -7.180702e-02       7.180735e-02 
       1.200000e+00      -7.180702e-02      -7.180666e-02 
       1.200000e+00       7.180704e-02      -7.180666e-02 
       1.200000e+00       7.180704e-02       7.180740e-02 
       1.200000e+00      -7.180702e-02       7.180740e-02 
       1.200000e+00      -7.180702e-02      -7.180666e-02 
       1.200000e+00       7.180704e-02      -7.180666e-02 
       1.200000e+00       7.180704e-02       7.180740e-02 
       1.200000e+00      -7.180702e-02       7.180740e-02 
       1.300000e+00      -7.180702e-02      -7.180660e-02 
       1.300000e+00       7.180704e-02      -7.180660e-02 
       1.300000e+00       7.180704e-02       7.180746e-02 
       1.300000e+00      -7.180702e-02       7.180746e-02 
       1.300000e+00      -7.180702e-02      -7.180660e-02 
       1.300000e+00       7.180704e-02      -7.180660e-02 
       1.300000e+00       7.180704e-02       7.180746e-02 
       1.300000e+00      -7.180702e-02       7.180746e-02 
       1.400000e+00      -7.180702e-02      -7.180654e-02 
       1.400000e+00       7.180705e-02      -7.180654e-02 
       1.400000e+00       7.180705e-02       7.180753e-02 
       1.400000e+00      -7.180702e-02       7.180753e-02 
       1.400000e+00      -7.180702e-02      -7.180654e-02 
       1.400000e+00       7.180705e-02      -7.180654e-02 
       1.400000e+00       7.180705e-02       7.180753e-02 
       1.400000e+00      -7.180702e-02       7.180753e-02 
       1.500000e+00      -7.180702e-02      -7.180647e-02 
       1.500000e+00       7.180705e-02      -7.180647e-02 
       1.500000e+00       7.180705e-02       7.180760e-02 
       1.500000e+00      -7.180702e-02       7.180760e-02 
       1.500000e+00      -7.180702e-02      -7.180647e-02 
       1.500000e+00       7.180705e-02      -7.180647e-02 
       1.500000e+00       7.180705e-02       7.180760e-02 
       1.500000e+00      -7.180702e-02       7.180760e-02 
       1.600000e+00      -7.180702e-02      -7.180639e-02 
       1.600000e+00       7.180705e-02      -7.180639e-02 
       1.600000e+00       7.180705e-02       7.180767e-02 
       1.600000e+00      -7.180702e-02       7.180767e-02 
       1.600000e+00      -7.180702e-02      -7.180639e-02 
       1.600000e+00       7.180705e-02      -7.180639e-02 
       1.600000e+00       7.180705e-02       7.180767e-02 
       1.600000e+00      -7.180702e-02       7.180767e-02 
       1.700000e+00      -7.180701e-02      -7.180632e-02 
       1.700000e+00       7.180705e-02      -7.180632e-02 
       1.700000e+00       7.180705e-02       7.180775e-02 
       1.700000e+00      -7.180701e-02       7.180775e-02 
       1.700000e+00      -7.180701e-02      -7.180632e-02 
       1.700000e+00       7.180705e-02      -7.180632e-02 
       1.700000e+00       7.180705e-02       7.180775e-02 
       1.700000e+00      -7.180701e-02       7.180775e-02 
       1.800000e+00      -7.180701e-02      -7.180624e-02 
       1.800000e+00       7.180705e-02      -7.180624e-02 
       1.800000e+00       7.180705e-02       7.180783e-02 
       1.800000e+00      -7.180701e-02       7.180783e-02 
       1.800000e+00      -7.180701e-02      -7.180624e-02 
       1.800000e+00       7.180705e-02      -7.180624e-02 
       1.800000e+00       7.180705e-02       7.180783e-02 
       1.800000e+00      -7.180701e-02       7.180783e-02 
       1.900000e+00      -7.180701e-02      -7.180615e-02 
       1.900000e+00       7.180706e-02      -7.180615e-02 
       1.900000e+00       7.180706e-02       7.180792e-02 
       1.900000e+00      -7.180701e-02       7.180792e-02 
       1.900000e+00      -7.180701e-02      -7.180615e-02 
       1.900000e+00       7.180706e-02      -7.180615e-02 
       1.900000e+00       7.180706e-02       7.180792e-02 
       1.900000e+00      -7.180701e-02       7.180792e-02 
       2.000000e+00      -7.180701e-02      -7.180606e-02 
       2.000000e+00       7.180706e-02      -7.180606e-02 
       2.000000e+00       7.180706e-02       7.180800e-02 
       2.000000e+00      -7.180701e-02       7.180800e-02 
       2.000000e+00      -7.180701e-02      -7.180606e-02 
       2.000000e+00       7.180706e-02      -7.180606e-02 
       2.000000e+00       7.180706e-02       7.180800e-02 
       2.000000e+00      -7.180701e-02       7.180800e-02 
       2.100000e+00      -7.180701e-02      -7.180597e-02 
[...]
POINT_DATA       800 
VECTORS Displacements float
       1.27632934e-25       0.00000000e+00       0.00000000e+00 
      -6.35396900e-25       0.00000000e+00       0.00000000e+00 
      -1.27632934e-25       0.00000000e+00       0.00000000e+00 
       6.35396900e-25       0.00000000e+00       0.00000000e+00 
       4.05034382e-09       6.48231330e-11       2.76494072e-09 
       3.84360016e-09       6.48231330e-11       2.75016815e-09 
      -4.05158787e-09       7.95957050e-11       2.75016794e-09 
      -3.84484421e-09       7.95956911e-11       2.76494051e-09 
       4.05034382e-09       6.48231330e-11       2.76494072e-09 
       3.84360016e-09       6.48231330e-11       2.75016815e-09 
      -4.05158787e-09       7.95957050e-11       2.75016794e-09 
      -3.84484421e-09       7.95956911e-11       2.76494051e-09 
       8.02284869e-09       2.72221010e-10       1.09745689e-08 
       7.61333388e-09       2.72221010e-10       1.09450237e-08 
      -8.02533964e-09       3.01766126e-10       1.09450229e-08 
      -7.61582480e-09       3.01766126e-10       1.09745681e-08 
       8.02284869e-09       2.72221010e-10       1.09745689e-08 
       7.61333388e-09       2.72221010e-10       1.09450237e-08 
      -8.02533964e-09       3.01766126e-10       1.09450229e-08 
      -7.61582480e-09       3.01766126e-10       1.09745681e-08 
       1.19175146e-08       6.19427579e-10       2.45232524e-08 
       1.13092011e-08       6.19427593e-10       2.44789347e-08 
      -1.19212553e-08       6.63745267e-10       2.44789328e-08 
      -1.13129418e-08       6.63745253e-10       2.45232506e-08 
       1.19175146e-08       6.19427579e-10       2.45232524e-08 
       1.13092011e-08       6.19427593e-10       2.44789347e-08 
      -1.19212553e-08       6.63745267e-10       2.44789328e-08 
      -1.13129418e-08       6.63745253e-10       2.45232506e-08 
       1.57343417e-08       1.10367676e-09       4.33053591e-08 
       1.49312019e-08       1.10367676e-09       4.32462688e-08 
      -1.57393347e-08       1.16276697e-09       4.32462655e-08 
      -1.49361949e-08       1.16276697e-09       4.33053559e-08 
       1.57343417e-08       1.10367676e-09       4.33053591e-08 
       1.49312019e-08       1.10367676e-09       4.32462688e-08 
      -1.57393347e-08       1.16276697e-09       4.32462655e-08 
      -1.49361949e-08       1.16276697e-09       4.33053559e-08 
       1.94733299e-08       1.72220245e-09       6.72152569e-08 
       1.84793364e-08       1.72220245e-09       6.71413939e-08 
      -1.94795779e-08       1.79606517e-09       6.71413889e-08 
      -1.84855845e-08       1.79606517e-09       6.72152519e-08 
       1.94733299e-08       1.72220245e-09       6.72152569e-08 
       1.84793364e-08       1.72220245e-09       6.71413939e-08 
      -1.94795779e-08       1.79606517e-09       6.71413889e-08 
      -1.84855845e-08       1.79606517e-09       6.72152519e-08 
       2.31344792e-08       2.47223858e-09       9.61473136e-08 
       2.19536046e-08       2.47223858e-09       9.60586780e-08 
      -2.31419849e-08       2.56087380e-09       9.60586709e-08 
      -2.19611103e-08       2.56087380e-09       9.61473065e-08 
       2.31344792e-08       2.47223858e-09       9.61473136e-08 
       2.19536046e-08       2.47223858e-09       9.60586780e-08 
      -2.31419849e-08       2.56087380e-09       9.60586709e-08 
      -2.19611103e-08       2.56087380e-09       9.61473065e-08 
       2.67177895e-08       3.35101903e-09       1.29995897e-07 
       2.53540062e-08       3.35101903e-09       1.29892489e-07 
      -2.67265556e-08       3.45442679e-09       1.29892479e-07 
      -2.53627723e-08       3.45442679e-09       1.29995888e-07 
       2.67177895e-08       3.35101903e-09       1.29995897e-07 
       2.53540062e-08       3.35101903e-09       1.29892489e-07 
      -2.67265556e-08       3.45442679e-09       1.29892479e-07 
      -2.53627723e-08       3.45442679e-09       1.29995888e-07 
       3.02232616e-08       4.35577772e-09       1.68655375e-07 
       2.86805419e-08       4.35577772e-09       1.68537194e-07 
      -3.02332901e-08       4.47395797e-09       1.68537182e-07 
      -2.86905705e-08       4.47395797e-09       1.68655363e-07 
       3.02232616e-08       4.35577772e-09       1.68655375e-07 
       2.86805419e-08       4.35577772e-09       1.68537194e-07 
      -3.02332901e-08       4.47395797e-09       1.68537182e-07 
      -2.86905705e-08       4.47395797e-09       1.68655363e-07 
       3.36508943e-08       5.48374859e-09       2.12020116e-07 
       3.19332111e-08       5.48374859e-09       2.11887162e-07 
      -3.36621883e-08       5.61670134e-09       2.11887147e-07 
      -3.19445049e-08       5.61670134e-09       2.12020101e-07 
       3.36508943e-08       5.48374859e-09       2.12020116e-07 
       3.19332111e-08       5.48374859e-09       2.11887162e-07 
      -3.36621883e-08       5.61670134e-09       2.11887147e-07 
      -3.19445049e-08       5.61670134e-09       2.12020101e-07 
       3.70006885e-08       6.73216552e-09       2.59984487e-07 
       3.51120142e-08       6.73216552e-09       2.59836761e-07 
      -3.70132501e-08       6.87989078e-09       2.59836743e-07 
      -3.51245755e-08       6.87989078e-09       2.59984469e-07 
       3.70006885e-08       6.73216555e-09       2.59984487e-07 
       3.51120140e-08       6.73216552e-09       2.59836761e-07 
      -3.70132500e-08       6.87989074e-09       2.59836743e-07 
      -3.51245755e-08       6.87989077e-09       2.59984469e-07 
       4.02769631e-08       8.09908859e-09       3.12443932e-07 
       3.82210608e-08       8.09908855e-09       3.12282988e-07 
      -4.02903499e-08       8.26003112e-09       3.12282967e-07 
      -3.82344476e-08       8.26003115e-09       3.12443910e-07 
       4.02769631e-08       8.09908859e-09       3.12443932e-07 
       3.82210608e-08       8.09908855e-09       3.12282988e-07 
      -4.02903499e-08       8.26003112e-09       3.12282967e-07 
      -3.82344476e-08       8.26003115e-09       3.12443910e-07 
       4.34835905e-08       9.58121668e-09       3.69302862e-07 
       4.12640146e-08       9.58121664e-09       3.69128701e-07 
      -4.34978085e-08       9.75537659e-09       3.69128676e-07 
      -4.12782326e-08       9.75537663e-09       3.69302837e-07 
       4.34835905e-08       9.58121668e-09       3.69302862e-07 
       4.12640146e-08       9.58121664e-09       3.69128701e-07 
      -4.34978085e-08       9.75537659e-09       3.69128676e-07 
      -4.12782326e-08       9.75537663e-09       3.69302837e-07 
       4.66205707e-08       1.11760750e-08       4.30466765e-07 
       4.42408756e-08       1.11760749e-08       4.30279386e-07 
      -4.66356262e-08       1.13634522e-08       4.30279357e-07 
      -4.42559311e-08       1.13634522e-08       4.30466736e-07 
       4.66205707e-08       1.11760750e-08       4.30466765e-07 
       4.42408756e-08       1.11760749e-08       4.30279386e-07 
      -4.66356262e-08       1.13634522e-08       4.30279357e-07 
      -4.42559311e-08       1.13634522e-08       4.30466736e-07 
       4.96879040e-08       1.28811885e-08       4.95841127e-07 
       4.71516439e-08       1.28811884e-08       4.95640530e-07 
      -4.97038029e-08       1.30817830e-08       4.95640498e-07 
      -4.71675428e-08       1.30817831e-08       4.95841094e-07 
       4.96879040e-08       1.28811885e-08       4.95841127e-07 
       4.71516439e-08       1.28811884e-08       4.95640530e-07 
      -4.97038029e-08       1.30817830e-08       4.95640498e-07 
      -4.71675428e-08       1.30817831e-08       4.95841094e-07 
       5.26855897e-08       1.46940823e-08       5.65331435e-07 
       4.99963195e-08       1.46940822e-08       5.65117621e-07 
      -5.27023385e-08       1.49078942e-08       5.65117585e-07 
      -5.00130679e-08       1.49078942e-08       5.65331398e-07 
       5.26855897e-08       1.46940823e-08       5.65331435e-07 
       4.99963195e-08       1.46940822e-08       5.65117621e-07 
      -5.27023385e-08       1.49078942e-08       5.65117585e-07 
      -5.00130679e-08       1.49078942e-08       5.65331398e-07 
       5.56136288e-08       1.66122815e-08       6.38843177e-07 
       5.27749022e-08       1.66122815e-08       6.38616146e-07 
      -5.56312327e-08       1.68393107e-08       6.38616105e-07 
      -5.27925061e-08       1.68393108e-08       6.38843136e-07 
       5.56136288e-08       1.66122815e-08       6.38843177e-07 
       5.27749022e-08       1.66122815e-08       6.38616146e-07 
      -5.56312327e-08       1.68393107e-08       6.38616105e-07 
      -5.27925061e-08       1.68393108e-08       6.38843136e-07 
       5.84720210e-08       1.86333112e-08       7.16281839e-07 
       5.54873927e-08       1.86333112e-08       7.16041591e-07 
      -5.84904856e-08       1.88735577e-08       7.16041545e-07 
      -5.55058570e-08       1.88735578e-08       7.16281794e-07 
       5.84720210e-08       1.86333112e-08       7.16281839e-07 
       5.54873927e-08       1.86333112e-08       7.16041591e-07 
      -5.84904856e-08       1.88735577e-08       7.16041545e-07 
      -5.55058570e-08       1.88735578e-08       7.16281794e-07 
       6.12607665e-08       2.07546965e-08       7.97552909e-07 
       5.81337904e-08       2.07546964e-08       7.97299443e-07 
      -6.12800968e-08       2.10081603e-08       7.97299393e-07 
      -5.81531210e-08       2.10081604e-08       7.97552860e-07 
       6.12607665e-08       2.07546965e-08       7.97552909e-07 
       5.81337904e-08       2.07546964e-08       7.97299443e-07 
      -6.12800968e-08       2.10081603e-08       7.97299393e-07 
      -5.81531210e-08       2.10081604e-08       7.97552860e-07 
       6.39798650e-08       2.29739624e-08       8.82561874e-07 
       6.07140960e-08       2.29739623e-08       8.82295190e-07 
      -6.40000668e-08       2.32406435e-08       8.82295136e-07 
      -6.07342978e-08       2.32406436e-08       8.82561820e-07 
       6.39798650e-08       2.29739624e-08       8.82561874e-07 
       6.07140960e-08       2.29739623e-08       8.82295190e-07 
      -6.40000668e-08       2.32406435e-08       8.82295136e-07 
      -6.07342978e-08       2.32406436e-08       8.82561820e-07 
       6.66293167e-08       2.52886340e-08       9.71214220e-07 
       6.32283088e-08       2.52886339e-08       9.70934318e-07 
      -6.66503954e-08       2.55685324e-08       9.70934260e-07 
      -6.32493875e-08       2.55685325e-08       9.71214161e-07 
       6.66293167e-08       2.52886340e-08       9.71214220e-07 
       6.32283088e-08       2.52886339e-08       9.70934318e-07 
      -6.66503954e-08       2.55685324e-08       9.70934260e-07 
      -6.32493875e-08       2.55685325e-08       9.71214161e-07 
       6.92133750e-08       2.76970625e-08       1.06341651e-06 
       6.56804735e-08       2.76970624e-08       1.06312495e-06 
      -6.92350226e-08       2.79886232e-08       1.06312488e-06 
      -6.57021211e-08       2.79886232e-08       1.06341645e-06 
       6.92133750e-08       2.76970625e-08       1.06341651e-06 
       6.56804735e-08       2.76970624e-08       1.06312495e-06 
      -6.92350226e-08       2.79886232e-08       1.06312488e-06 
      -6.57021211e-08       2.79886232e-08       1.06341645e-06 
       7.17359789e-08       3.01962380e-08       1.15908428e-06 
       6.80743200e-08       3.01962379e-08       1.15878105e-06 
      -7.17582029e-08       3.04994609e-08       1.15878098e-06 
      -6.80965440e-08       3.04994610e-08       1.15908421e-06 
       7.17359789e-08       3.01962380e-08       1.15908428e-06 
       6.80743200e-08       3.01962379e-08       1.15878105e-06 
      -7.17582029e-08       3.04994609e-08       1.15878098e-06 
      -6.80965440e-08       3.04994610e-08       1.15908421e-06 
       7.41971289e-08       3.27839768e-08       1.25813412e-06 
       7.04098486e-08       3.27839768e-08       1.25781923e-06 
      -7.42199360e-08       3.30988620e-08       1.25781916e-06 
      -7.04326557e-08       3.30988620e-08       1.25813405e-06 
       7.41971289e-08       3.27839768e-08       1.25813412e-06 
       7.04098486e-08       3.27839768e-08       1.25781923e-06 
      -7.42199360e-08       3.30988620e-08       1.25781916e-06 
      -7.04326557e-08       3.30988620e-08       1.25813405e-06 
       7.65968244e-08       3.54580952e-08       1.36048266e-06 
       7.26870590e-08       3.54580951e-08       1.36015610e-06 
      -7.66202217e-08       3.57846426e-08       1.36015603e-06 
      -7.27104563e-08       3.57846427e-08       1.36048258e-06 
       7.65968244e-08       3.54580952e-08       1.36048266e-06 
       7.26870590e-08       3.54580951e-08       1.36015610e-06 
      -7.66202217e-08       3.57846426e-08       1.36015603e-06 
      -7.27104563e-08       3.57846427e-08       1.36048258e-06 
       7.89350656e-08       3.82164094e-08       1.46604648e-06 
       7.49059517e-08       3.82164093e-08       1.46570827e-06 
      -7.89590606e-08       3.85546190e-08       1.46570819e-06 
      -7.49299467e-08       3.85546191e-08       1.46604640e-06 
       7.89350656e-08       3.82164094e-08       1.46604648e-06 
       7.49059517e-08       3.82164093e-08       1.46570827e-06 
      -7.89590606e-08       3.85546190e-08       1.46570819e-06 
      -7.49299467e-08       3.85546191e-08       1.46604640e-06 
       8.12118528e-08       4.10567356e-08       1.57474221e-06 
       7.70665260e-08       4.10567355e-08       1.57439233e-06 
      -8.12364522e-08       4.14066074e-08       1.57439225e-06 
      -7.70911250e-08       4.14066075e-08       1.57474212e-06 
       8.12118528e-08       4.10567356e-08       1.57474221e-06 
       7.70665260e-08       4.10567355e-08       1.57439233e-06 
      -8.12364522e-08       4.14066074e-08       1.57439225e-06 
      -7.70911250e-08       4.14066075e-08       1.57474212e-06 
       8.34271860e-08       4.39768901e-08       1.68648644e-06 
       7.91687826e-08       4.39768900e-08       1.68612491e-06 
      -8.34523961e-08       4.43384242e-08       1.68612481e-06 
      -7.91939927e-08       4.43384242e-08       1.68648635e-06 
       8.34271860e-08       4.39768901e-08       1.68648644e-06 
       7.91687826e-08       4.39768900e-08       1.68612491e-06 
      -8.34523961e-08       4.43384242e-08       1.68612481e-06 
      -7.91939927e-08       4.43384242e-08       1.68648635e-06 
       8.55810662e-08       4.69746891e-08       1.80119579e-06 
       8.12127223e-08       4.69746890e-08       1.80082259e-06 
      -8.56068922e-08       4.73478854e-08       1.80082249e-06 
      -8.12385483e-08       4.73478855e-08       1.80119569e-06 
       8.55810662e-08       4.69746891e-08       1.80119579e-06 
       8.12127223e-08       4.69746890e-08       1.80082259e-06 
      -8.56068922e-08       4.73478854e-08       1.80082249e-06 
      -8.12385483e-08       4.73478855e-08       1.80119569e-06 
       8.76734920e-08       5.00479489e-08       1.91878685e-06 
       8.31983438e-08       5.00479488e-08       1.91840199e-06 
      -8.76999411e-08       5.04328074e-08       1.91840189e-06 
      -8.32247928e-08       5.04328075e-08       1.91878675e-06 
       8.76734920e-08       5.00479489e-08       1.91878685e-06 
       8.31983438e-08       5.00479488e-08       1.91840199e-06 
      -8.76999411e-08       5.04328074e-08       1.91840189e-06 
      -8.32247928e-08       5.04328075e-08       1.91878675e-06 
       8.97044634e-08       5.31944857e-08       2.03917624e-06 
       8.51256479e-08       5.31944856e-08       2.03877971e-06 
      -8.97315422e-08       5.35910065e-08       2.03877961e-06 
      -8.51527262e-08       5.35910066e-08       2.03917613e-06 
       8.97044634e-08       5.31944857e-08       2.03917624e-06 
       8.51256474e-08       5.31944856e-08       2.03877971e-06 
      -8.97315422e-08       5.35910065e-08       2.03877961e-06 
      -8.51527262e-08       5.35910066e-08       2.03917613e-06 
       9.16781837e-08       5.64129419e-08       2.16228164e-06 
       8.69986270e-08       5.64129418e-08       2.16187500e-06 
      -9.17056875e-08       5.68195699e-08       2.16187489e-06 
      -8.70261307e-08       5.68195700e-08       2.16228152e-06 
       9.16781837e-08       5.64129419e-08       2.16228164e-06 
       8.69986270e-08       5.64129418e-08       2.16187500e-06 
      -9.17056875e-08       5.68195699e-08       2.16187489e-06 
      -8.70261307e-08       5.68195700e-08       2.16228152e-06 
       9.35986431e-08       5.97005987e-08       2.28802969e-06 
       8.88210634e-08       5.97005986e-08       2.28761295e-06 
      -9.36265789e-08       6.01173339e-08       2.28761283e-06 
      -8.88489993e-08       6.01173340e-08       2.28802957e-06 
       9.35986431e-08       5.97005987e-08       2.28802969e-06 
       8.88210634e-08       5.97005986e-08       2.28761295e-06 
      -9.36265789e-08       6.01173339e-08       2.28761283e-06 
      -8.88489993e-08       6.01173340e-08       2.28802957e-06 
       9.54658423e-08       6.30555637e-08       2.41634812e-06 
       9.05929576e-08       6.30555636e-08       2.41592127e-06 
      -9.54942161e-08       6.34824061e-08       2.41592115e-06 
      -9.06213313e-08       6.34824062e-08       2.41634800e-06 
       9.54658423e-08       6.30555637e-08       2.41634812e-06 
       9.05929576e-08       6.30555636e-08       2.41592127e-06 
      -9.54942161e-08       6.34824061e-08       2.41592115e-06 
      -9.06213313e-08       6.34824062e-08       2.41634800e-06 
       9.72797802e-08       6.64759441e-08       2.54716466e-06 
       9.23143086e-08       6.64759441e-08       2.54672770e-06 
      -9.73085998e-08       6.69128938e-08       2.54672758e-06 
      -9.23431283e-08       6.69128939e-08       2.54716453e-06 
       9.72797802e-08       6.64759441e-08       2.54716466e-06 
       9.23143086e-08       6.64759441e-08       2.54672770e-06 
      -9.73085998e-08       6.69128938e-08       2.54672758e-06 
      -9.23431283e-08       6.69128939e-08       2.54716453e-06 
       9.90404576e-08       6.99598476e-08       2.68040703e-06 
       9.39851175e-08       6.99598475e-08       2.67995997e-06 
      -9.90697293e-08       7.04069044e-08       2.67995984e-06 
      -9.40143892e-08       7.04069045e-08       2.68040690e-06 
       9.90404576e-08       6.99598476e-08       2.68040703e-06 
       9.39851175e-08       6.99598475e-08       2.67995997e-06 
      -9.90697293e-08       7.04069044e-08       2.67995984e-06 
      -9.40143892e-08       7.04069045e-08       2.68040690e-06 
       1.00747874e-07       7.35053813e-08       2.81600296e-06 
       9.56053836e-08       7.35053812e-08       2.81554579e-06 
      -1.00777605e-07       7.39625454e-08       2.81554566e-06 
      -9.56351136e-08       7.39625455e-08       2.81600283e-06 
       1.00747874e-07       7.35053813e-08       2.81600296e-06 
       9.56053836e-08       7.35053812e-08       2.81554579e-06 
      -1.00777605e-07       7.39625454e-08       2.81554566e-06 
      -9.56351136e-08       7.39625455e-08       2.81600283e-06 
       1.02402031e-07       7.71106528e-08       2.95388017e-06 
       9.71751071e-08       7.71106527e-08       2.95341290e-06 
      -1.02432226e-07       7.75779241e-08       2.95341276e-06 
      -9.72053025e-08       7.75779242e-08       2.95388004e-06 
       1.02402031e-07       7.71106528e-08       2.95388017e-06 
       9.71751071e-08       7.71106527e-08       2.95341290e-06 
      -1.02432226e-07       7.75779241e-08       2.95341276e-06 
      -9.72053025e-08       7.75779242e-08       2.95388004e-06 
       1.04002928e-07       8.07737695e-08       3.09396640e-06 
       9.86942896e-08       8.07737694e-08       3.09348901e-06 
      -1.04033593e-07       8.12511480e-08       3.09348887e-06 
      -9.87249540e-08       8.12511481e-08       3.09396625e-06 
       1.04002928e-07       8.07737695e-08       3.09396640e-06 
       9.86942896e-08       8.07737694e-08       3.09348901e-06 