# vtk DataFile Version 2.0
./output/onsasExample_nonLinearCantileverBlade_staitc3D_pitch numElements=10/onsasExample_nonLinearCantileverBlade_staitc3D_pitch numElements=10_0019.vtk
ASCII
DATASET UNSTRUCTURED_GRID

POINTS 800 float
       1.735198e-24      -7.180703e-02      -7.180703e-02 
       1.087741e-24       7.180703e-02      -7.180703e-02 
      -1.735198e-24       7.180703e-02       7.180703e-02 
      -1.087741e-24      -7.180703e-02       7.180703e-02 
       1.000000e-01      -7.180703e-02      -7.180703e-02 
       1.000000e-01       7.180703e-02      -7.180703e-02 
       1.000000e-01       7.180703e-02       7.180704e-02 
       1.000000e-01      -7.180703e-02       7.180704e-02 
       1.000000e-01      -7.180703e-02      -7.180703e-02 
       1.000000e-01       7.180703e-02      -7.180703e-02 
       1.000000e-01       7.180703e-02       7.180704e-02 
       1.000000e-01      -7.180703e-02       7.180704e-02 
       2.000000e-01      -7.180703e-02      -7.180702e-02 
       2.000000e-01       7.180703e-02      -7.180702e-02 
       2.000000e-01       7.180703e-02       7.180704e-02 
       2.000000e-01      -7.180703e-02       7.180704e-02 
       2.000000e-01      -7.180703e-02      -7.180702e-02 
       2.000000e-01       7.180703e-02      -7.180702e-02 
       2.000000e-01       7.180703e-02       7.180704e-02 
       2.000000e-01      -7.180703e-02       7.180704e-02 
       3.000000e-01      -7.180703e-02      -7.180701e-02 
       3.000000e-01       7.180703e-02      -7.180701e-02 
       3.000000e-01       7.180703e-02       7.180706e-02 
       3.000000e-01      -7.180703e-02       7.180706e-02 
       3.000000e-01      -7.180703e-02      -7.180701e-02 
       3.000000e-01       7.180703e-02      -7.180701e-02 
       3.000000e-01       7.180703e-02       7.180706e-02 
       3.000000e-01      -7.180703e-02       7.180706e-02 
       4.000000e-01      -7.180703e-02      -7.180699e-02 
       4.000000e-01       7.180704e-02      -7.180699e-02 
       4.000000e-01       7.180704e-02       7.180707e-02 
       4.000000e-01      -7.180703e-02       7.180707e-02 
       4.000000e-01      -7.180703e-02      -7.180699e-02 
       4.000000e-01       7.180704e-02      -7.180699e-02 
       4.000000e-01       7.180704e-02       7.180707e-02 
       4.000000e-01      -7.180703e-02       7.180707e-02 
       5.000000e-01      -7.180703e-02      -7.180697e-02 
       5.000000e-01       7.180704e-02      -7.180697e-02 
       5.000000e-01       7.180704e-02       7.180709e-02 
       5.000000e-01      -7.180703e-02       7.180709e-02 
       5.000000e-01      -7.180703e-02      -7.180697e-02 
       5.000000e-01       7.180704e-02      -7.180697e-02 
       5.000000e-01       7.180704e-02       7.180709e-02 
       5.000000e-01      -7.180703e-02       7.180709e-02 
       6.000000e-01      -7.180703e-02      -7.180695e-02 
       6.000000e-01       7.180704e-02      -7.180695e-02 
       6.000000e-01       7.180704e-02       7.180712e-02 
       6.000000e-01      -7.180703e-02       7.180712e-02 
       6.000000e-01      -7.180703e-02      -7.180695e-02 
       6.000000e-01       7.180704e-02      -7.180695e-02 
       6.000000e-01       7.180704e-02       7.180712e-02 
       6.000000e-01      -7.180703e-02       7.180712e-02 
       7.000000e-01      -7.180702e-02      -7.180692e-02 
       7.000000e-01       7.180704e-02      -7.180692e-02 
       7.000000e-01       7.180704e-02       7.180715e-02 
       7.000000e-01      -7.180702e-02       7.180715e-02 
       7.000000e-01      -7.180702e-02      -7.180692e-02 
       7.000000e-01       7.180704e-02      -7.180692e-02 
       7.000000e-01       7.180704e-02       7.180715e-02 
       7.000000e-01      -7.180702e-02       7.180715e-02 
       8.000000e-01      -7.180702e-02      -7.180688e-02 
       8.000000e-01       7.180704e-02      -7.180688e-02 
       8.000000e-01       7.180704e-02       7.180718e-02 
       8.000000e-01      -7.180702e-02       7.180719e-02 
       8.000000e-01      -7.180702e-02      -7.180688e-02 
       8.000000e-01       7.180704e-02      -7.180688e-02 
       8.000000e-01       7.180704e-02       7.180718e-02 
       8.000000e-01      -7.180702e-02       7.180719e-02 
       9.000000e-01      -7.180702e-02      -7.180684e-02 
       9.000000e-01       7.180705e-02      -7.180684e-02 
       9.000000e-01       7.180705e-02       7.180722e-02 
       9.000000e-01      -7.180702e-02       7.180722e-02 
       9.000000e-01      -7.180702e-02      -7.180684e-02 
       9.000000e-01       7.180705e-02      -7.180684e-02 
       9.000000e-01       7.180705e-02       7.180722e-02 
       9.000000e-01      -7.180702e-02       7.180722e-02 
       1.000000e+00      -7.180702e-02      -7.180680e-02 
       1.000000e+00       7.180705e-02      -7.180680e-02 
       1.000000e+00       7.180705e-02       7.180727e-02 
       1.000000e+00      -7.180702e-02       7.180727e-02 
       1.000000e+00      -7.180702e-02      -7.180680e-02 
       1.000000e+00       7.180705e-02      -7.180680e-02 
       1.000000e+00       7.180705e-02       7.180727e-02 
       1.000000e+00      -7.180702e-02       7.180727e-02 
       1.100000e+00      -7.180701e-02      -7.180675e-02 
       1.100000e+00       7.180705e-02      -7.180675e-02 
       1.100000e+00       7.180705e-02       7.180731e-02 
       1.100000e+00      -7.180701e-02       7.180731e-02 
       1.100000e+00      -7.180701e-02      -7.180675e-02 
       1.100000e+00       7.180705e-02      -7.180675e-02 
       1.100000e+00       7.180705e-02       7.180731e-02 
       1.100000e+00      -7.180701e-02       7.180731e-02 
       1.200000e+00      -7.180701e-02      -7.180670e-02 
       1.200000e+00       7.180706e-02      -7.180670e-02 
       1.200000e+00       7.180706e-02       7.180737e-02 
       1.200000e+00      -7.180701e-02       7.180737e-02 
       1.200000e+00      -7.180701e-02      -7.180670e-02 
       1.200000e+00       7.180706e-02      -7.180670e-02 
       1.200000e+00       7.180706e-02       7.180737e-02 
       1.200000e+00      -7.180701e-02       7.180737e-02 
       1.300000e+00      -7.180700e-02      -7.180664e-02 
       1.300000e+00       7.180706e-02      -7.180665e-02 
       1.300000e+00       7.180706e-02       7.180742e-02 
       1.300000e+00      -7.180700e-02       7.180742e-02 
       1.300000e+00      -7.180700e-02      -7.180664e-02 
       1.300000e+00       7.180706e-02      -7.180665e-02 
       1.300000e+00       7.180706e-02       7.180742e-02 
       1.300000e+00      -7.180700e-02       7.180742e-02 
       1.400000e+00      -7.180700e-02      -7.180659e-02 
       1.400000e+00       7.180707e-02      -7.180659e-02 
       1.400000e+00       7.180707e-02       7.180748e-02 
       1.400000e+00      -7.180700e-02       7.180748e-02 
       1.400000e+00      -7.180700e-02      -7.180659e-02 
       1.400000e+00       7.180707e-02      -7.180659e-02 
       1.400000e+00       7.180707e-02       7.180748e-02 
       1.400000e+00      -7.180700e-02       7.180748e-02 
       1.500000e+00      -7.180700e-02      -7.180652e-02 
       1.500000e+00       7.180707e-02      -7.180652e-02 
       1.500000e+00       7.180707e-02       7.180754e-02 
       1.500000e+00      -7.180700e-02       7.180754e-02 
       1.500000e+00      -7.180700e-02      -7.180652e-02 
       1.500000e+00       7.180707e-02      -7.180652e-02 
       1.500000e+00       7.180707e-02       7.180754e-02 
       1.500000e+00      -7.180700e-02       7.180754e-02 
       1.600000e+00      -7.180699e-02      -7.180646e-02 
       1.600000e+00       7.180707e-02      -7.180646e-02 
       1.600000e+00       7.180708e-02       7.180761e-02 
       1.600000e+00      -7.180699e-02       7.180761e-02 
       1.600000e+00      -7.180699e-02      -7.180646e-02 
       1.600000e+00       7.180707e-02      -7.180646e-02 
       1.600000e+00       7.180708e-02       7.180761e-02 
       1.600000e+00      -7.180699e-02       7.180761e-02 
       1.700000e+00      -7.180699e-02      -7.180639e-02 
       1.700000e+00       7.180708e-02      -7.180639e-02 
       1.700000e+00       7.180708e-02       7.180768e-02 
       1.700000e+00      -7.180699e-02       7.180768e-02 
       1.700000e+00      -7.180699e-02      -7.180639e-02 
       1.700000e+00       7.180708e-02      -7.180639e-02 
       1.700000e+00       7.180708e-02       7.180768e-02 
       1.700000e+00      -7.180699e-02       7.180768e-02 
       1.800000e+00      -7.180698e-02      -7.180631e-02 
       1.800000e+00       7.180709e-02      -7.180631e-02 
       1.800000e+00       7.180709e-02       7.180775e-02 
       1.800000e+00      -7.180698e-02       7.180775e-02 
       1.800000e+00      -7.180698e-02      -7.180631e-02 
       1.800000e+00       7.180709e-02      -7.180631e-02 
       1.800000e+00       7.180709e-02       7.180775e-02 
       1.800000e+00      -7.180698e-02       7.180775e-02 
       1.900000e+00      -7.180698e-02      -7.180624e-02 
       1.900000e+00       7.180709e-02      -7.180624e-02 
       1.900000e+00       7.180709e-02       7.180783e-02 
       1.900000e+00      -7.180697e-02       7.180783e-02 
       1.900000e+00      -7.180698e-02      -7.180624e-02 
       1.900000e+00       7.180709e-02      -7.180624e-02 
       1.900000e+00       7.180709e-02       7.180783e-02 
       1.900000e+00      -7.180697e-02       7.180783e-02 
       2.000000e+00      -7.180697e-02      -7.180616e-02 
       2.000000e+00       7.180710e-02      -7.180616e-02 
       2.000000e+00       7.180710e-02       7.180791e-02 
       2.000000e+00      -7.180697e-02       7.180791e-02 
       2.000000e+00      -7.180697e-02      -7.180616e-02 
       2.000000e+00       7.180710e-02      -7.180616e-02 
       2.000000e+00       7.180710e-02       7.180791e-02 
       2.000000e+00      -7.180697e-02       7.180791e-02 
       2.100000e+00      -7.180696e-02      -7.180607e-02 
[...]
POINT_DATA       800 
VECTORS Displacements float
       1.73519811e-24       0.00000000e+00      -1.38777878e-17 
       1.08774102e-24       1.38777878e-17      -1.38777878e-17 
      -1.73519811e-24       0.00000000e+00       1.38777878e-17 
      -1.08774102e-24      -1.38777878e-17       1.38777878e-17 
       3.81982374e-09       1.60771702e-10       2.50791193e-09 
       3.29822365e-09       1.60771702e-10       2.46509659e-09 
      -3.82091733e-09       2.03587036e-10       2.46509643e-09 
      -3.29931726e-09       2.03587036e-10       2.50791177e-09 
       3.81982374e-09       1.60771702e-10       2.50791193e-09 
       3.29822365e-09       1.60771702e-10       2.46509659e-09 
      -3.82091733e-09       2.03587036e-10       2.46509643e-09 
      -3.29931726e-09       2.03587036e-10       2.50791177e-09 
       7.56623955e-09       6.81249793e-10       9.92533300e-09 
       6.53306173e-09       6.81249820e-10       9.83970229e-09 
      -7.56842908e-09       7.66880406e-10       9.83970160e-09 
      -6.53525126e-09       7.66880379e-10       9.92533232e-09 
       7.56623955e-09       6.81249793e-10       9.92533300e-09 
       6.53306173e-09       6.81249820e-10       9.83970229e-09 
      -7.56842908e-09       7.66880406e-10       9.83970160e-09 
      -6.53525126e-09       7.66880379e-10       9.92533232e-09 
       1.12392475e-08       1.55445559e-09       2.21570140e-08 
       9.70451419e-09       1.55445561e-09       2.20285679e-08 
      -1.12425352e-08       1.68290148e-09       2.20285664e-08 
      -9.70780195e-09       1.68290146e-09       2.21570125e-08 
       1.12392475e-08       1.55445559e-09       2.21570140e-08 
       9.70451419e-09       1.55445561e-09       2.20285679e-08 
      -1.12425352e-08       1.68290148e-09       2.20285664e-08 
      -9.70780195e-09       1.68290146e-09       2.21570125e-08 
       1.48388475e-08       2.77341047e-09       3.91077058e-08 
       1.28125812e-08       2.77341047e-09       3.89364443e-08 
      -1.48432357e-08       2.94467160e-09       3.89364417e-08 
      -1.28169694e-08       2.94467159e-09       3.91077032e-08 
       1.48388475e-08       2.77341047e-09       3.91077058e-08 
       1.28125812e-08       2.77341047e-09       3.89364443e-08 
      -1.48432357e-08       2.94467160e-09       3.89364417e-08 
      -1.28169694e-08       2.94467159e-09       3.91077032e-08 
       1.83650398e-08       4.33113577e-09       6.06821593e-08 
       1.58572626e-08       4.33113577e-09       6.04680823e-08 
      -1.83705306e-08       4.54521211e-09       6.04680783e-08 
      -1.58627534e-08       4.54521211e-09       6.06821552e-08 
       1.83650398e-08       4.33113577e-09       6.06821593e-08 
       1.58572626e-08       4.33113577e-09       6.04680823e-08 
      -1.83705306e-08       4.54521211e-09       6.04680783e-08 
      -1.58627534e-08       4.54521211e-09       6.06821552e-08 
       2.18178242e-08       6.22065284e-09       8.67851252e-08 
       1.88385586e-08       6.22065283e-09       8.65282328e-08 
      -2.18244198e-08       6.47754440e-09       8.65282270e-08 
      -1.88451541e-08       6.47754440e-09       8.67851194e-08 
       2.18178242e-08       6.22065284e-09       8.67851252e-08 
       1.88385586e-08       6.22065283e-09       8.65282328e-08 
      -2.18244198e-08       6.47754440e-09       8.65282270e-08 
      -1.88451541e-08       6.47754440e-09       8.67851194e-08 
       2.51972008e-08       8.43498305e-09       1.17321354e-07 
       2.17564691e-08       8.43498303e-09       1.17021647e-07 
      -2.52049032e-08       8.73468976e-09       1.17021639e-07 
      -2.17641715e-08       8.73468978e-09       1.17321347e-07 
       2.51972008e-08       8.43498305e-09       1.17321354e-07 
       2.17564691e-08       8.43498303e-09       1.17021647e-07 
      -2.52049032e-08       8.73468976e-09       1.17021639e-07 
      -2.17641715e-08       8.73468978e-09       1.17321347e-07 
       2.85031697e-08       1.09671477e-08       1.52195598e-07 
       2.46109942e-08       1.09671477e-08       1.51853074e-07 
      -2.85119809e-08       1.13096696e-08       1.51853065e-07 
      -2.46198053e-08       1.13096697e-08       1.52195588e-07 
       2.85031697e-08       1.09671477e-08       1.52195598e-07 
       2.46109942e-08       1.09671477e-08       1.51853074e-07 
      -2.85119809e-08       1.13096696e-08       1.51853065e-07 
      -2.46198053e-08       1.13096697e-08       1.52195588e-07 
       3.17357308e-08       1.38101683e-08       1.91312606e-07 
       2.74021338e-08       1.38101682e-08       1.90927267e-07 
      -3.17456529e-08       1.41955053e-08       1.90927255e-07 
      -2.74120557e-08       1.41955054e-08       1.91312594e-07 
       3.17357308e-08       1.38101683e-08       1.91312606e-07 
       2.74021338e-08       1.38101682e-08       1.90927267e-07 
      -3.17456529e-08       1.41955053e-08       1.90927255e-07 
      -2.74120557e-08       1.41955054e-08       1.91312594e-07 
       3.48948841e-08       1.69570660e-08       2.34577130e-07 
       3.01298877e-08       1.69570659e-08       2.34148976e-07 
      -3.49059190e-08       1.73852181e-08       2.34148961e-07 
      -3.01409229e-08       1.73852182e-08       2.34577116e-07 
       3.48948841e-08       1.69570660e-08       2.34577130e-07 
       3.01298879e-08       1.69570659e-08       2.34148976e-07 
      -3.49059192e-08       1.73852181e-08       2.34148961e-07 
      -3.01409229e-08       1.73852182e-08       2.34577116e-07 
       3.79846887e-08       2.04032383e-08       2.81893339e-07 
       3.27977883e-08       2.04032382e-08       2.81426876e-07 
      -3.79964475e-08       2.08696983e-08       2.81426859e-07 
      -3.28095469e-08       2.08696985e-08       2.81893321e-07 
       3.79846887e-08       2.04032383e-08       2.81893339e-07 
       3.27977883e-08       2.04032382e-08       2.81426876e-07 
      -3.79964475e-08       2.08696983e-08       2.81426859e-07 
      -3.28095469e-08       2.08696985e-08       2.81893321e-07 
       4.10088115e-08       2.41400651e-08       3.33176591e-07 
       3.54089738e-08       2.41400650e-08       3.32671820e-07 
      -4.10212986e-08       2.46448331e-08       3.32671799e-07 
      -3.54214611e-08       2.46448332e-08       3.33176571e-07 
       4.10088115e-08       2.41400651e-08       3.33176591e-07 
       3.54089738e-08       2.41400650e-08       3.32671820e-07 
      -4.10212986e-08       2.46448331e-08       3.32671799e-07 
      -3.54214611e-08       2.46448332e-08       3.33176571e-07 
       4.39672516e-08       2.81613023e-08       3.88341664e-07 
       3.79634442e-08       2.81613022e-08       3.87798584e-07 
      -4.39804728e-08       2.87043782e-08       3.87798561e-07 
      -3.79766654e-08       2.87043784e-08       3.88341640e-07 
       4.39672516e-08       2.81613023e-08       3.88341664e-07 
       3.79634442e-08       2.81613022e-08       3.87798584e-07 
      -4.39804728e-08       2.87043782e-08       3.87798561e-07 
      -3.79766654e-08       2.87043784e-08       3.88341640e-07 
       4.68600097e-08       3.24607060e-08       4.47303335e-07 
       4.04612002e-08       3.24607058e-08       4.46721947e-07 
      -4.68739694e-08       3.30420898e-08       4.46721920e-07 
      -4.04751597e-08       3.30420900e-08       4.47303308e-07 
       4.68600097e-08       3.24607060e-08       4.47303335e-07 
       4.04612002e-08       3.24607058e-08       4.46721947e-07 
      -4.68739694e-08       3.30420898e-08       4.46721920e-07 
      -4.04751597e-08       3.30420900e-08       4.47303308e-07 
       4.96870856e-08       3.70320319e-08       5.09976380e-07 
       4.29022409e-08       3.70320318e-08       5.09356684e-07 
      -4.97017889e-08       3.76517237e-08       5.09356654e-07 
      -4.29169440e-08       3.76517239e-08       5.09976350e-07 
       4.96870856e-08       3.70320319e-08       5.09976380e-07 
       4.29022409e-08       3.70320318e-08       5.09356684e-07 
      -4.97017889e-08       3.76517237e-08       5.09356654e-07 
      -4.29169440e-08       3.76517239e-08       5.09976350e-07 
       5.24484793e-08       4.18690362e-08       5.76275578e-07 
       4.52865669e-08       4.18690361e-08       5.75617573e-07 
      -5.24639310e-08       4.25270359e-08       5.75617540e-07 
      -4.53020186e-08       4.25270360e-08       5.76275545e-07 
       5.24484793e-08       4.18690362e-08       5.76275578e-07 
       4.52865669e-08       4.18690361e-08       5.75617573e-07 
      -5.24639310e-08       4.25270359e-08       5.75617540e-07 
      -4.53020186e-08       4.25270360e-08       5.76275545e-07 
       5.51441912e-08       4.69654748e-08       6.46115705e-07 
       4.76141786e-08       4.69654746e-08       6.45419392e-07 
      -5.51603956e-08       4.76617823e-08       6.45419355e-07 
      -4.76303827e-08       4.76617825e-08       6.46115668e-07 
       5.51441912e-08       4.69654748e-08       6.46115705e-07 
       4.76141786e-08       4.69654746e-08       6.45419392e-07 
      -5.51603956e-08       4.76617823e-08       6.45419355e-07 
      -4.76303827e-08       4.76617825e-08       6.46115668e-07 
       5.77742214e-08       5.23151035e-08       7.19411538e-07 
       4.98850756e-08       5.23151033e-08       7.18676917e-07 
      -5.77911825e-08       5.30497189e-08       7.18676876e-07 
      -4.99020369e-08       5.30497191e-08       7.19411498e-07 
       5.77742214e-08       5.23151035e-08       7.19411538e-07 
       4.98850756e-08       5.23151033e-08       7.18676917e-07 
      -5.77911825e-08       5.30497189e-08       7.18676876e-07 
      -4.99020369e-08       5.30497191e-08       7.19411498e-07 
       6.03385695e-08       5.79116783e-08       7.96077854e-07 
       5.20992580e-08       5.79116781e-08       7.95304924e-07 
      -6.03562920e-08       5.86846016e-08       7.95304880e-07 
      -5.21169805e-08       5.86846018e-08       7.96077810e-07 
       6.03385695e-08       5.79116783e-08       7.96077854e-07 
       5.20992580e-08       5.79116781e-08       7.95304924e-07 
      -6.03562920e-08       5.86846016e-08       7.95304880e-07 
      -5.21169805e-08       5.86846018e-08       7.96077810e-07 
       6.28372359e-08       6.37489553e-08       8.76029431e-07 
       5.42567258e-08       6.37489550e-08       8.75218193e-07 
      -6.28557240e-08       6.45601864e-08       8.75218145e-07 
      -5.42752141e-08       6.45601866e-08       8.76029383e-07 
       6.28372359e-08       6.37489553e-08       8.76029431e-07 
       5.42567258e-08       6.37489550e-08       8.75218193e-07 
      -6.28557240e-08       6.45601864e-08       8.75218145e-07 
      -5.42752141e-08       6.45601866e-08       8.76029383e-07 
       6.52742211e-08       6.98230661e-08       9.59180462e-07 
       5.63609528e-08       6.98230659e-08       9.58335423e-07 
      -6.52932042e-08       7.06680981e-08       9.58335371e-07 
      -5.63799358e-08       7.06680984e-08       9.59180411e-07 
       6.52742211e-08       6.98230661e-08       9.59180462e-07 
       5.63609528e-08       6.98230659e-08       9.58335423e-07 
      -6.52932042e-08       7.06680981e-08       9.58335371e-07 
      -5.63799358e-08       7.06680984e-08       9.59180411e-07 
       6.76532510e-08       7.61261257e-08       1.04545633e-06 
       5.84151363e-08       7.61261254e-08       1.04457749e-06 
      -6.76727350e-08       7.70049585e-08       1.04457744e-06 
      -5.84346207e-08       7.70049587e-08       1.04545628e-06 
       6.76532510e-08       7.61261257e-08       1.04545633e-06 
       5.84151363e-08       7.61261254e-08       1.04457749e-06 
      -6.76727350e-08       7.70049585e-08       1.04457744e-06 
      -5.84346207e-08       7.70049587e-08       1.04545628e-06 
       6.99743254e-08       8.26526243e-08       1.13478185e-06 
       6.04192771e-08       8.26526240e-08       1.13386921e-06 
      -6.99943152e-08       8.35652579e-08       1.13386915e-06 
      -6.04392674e-08       8.35652582e-08       1.13478179e-06 
       6.99743254e-08       8.26526243e-08       1.13478185e-06 
       6.04192771e-08       8.26526240e-08       1.13386921e-06 
      -6.99943152e-08       8.35652579e-08       1.13386915e-06 
      -6.04392674e-08       8.35652582e-08       1.13478179e-06 
       7.22374440e-08       8.93970526e-08       1.22708181e-06 
       6.23733740e-08       8.93970522e-08       1.22613537e-06 
      -7.22579463e-08       9.03434870e-08       1.22613531e-06 
      -6.23938767e-08       9.03434873e-08       1.22708175e-06 
       7.22374440e-08       8.93970526e-08       1.22708181e-06 
       6.23733740e-08       8.93970522e-08       1.22613537e-06 
      -7.22579463e-08       9.03434870e-08       1.22613531e-06 
      -6.23938767e-08       9.03434873e-08       1.22708175e-06 
       7.44426067e-08       9.63539010e-08       1.32228103e-06 
       6.42774278e-08       9.63539007e-08       1.32130078e-06 
      -7.44636277e-08       9.73341363e-08       1.32130072e-06 
      -6.42984492e-08       9.73341367e-08       1.32228096e-06 
       7.44426067e-08       9.63539010e-08       1.32228103e-06 
       6.42774278e-08       9.63539007e-08       1.32130078e-06 
      -7.44636277e-08       9.73341363e-08       1.32130072e-06 
      -6.42984492e-08       9.73341367e-08       1.32228096e-06 
       7.65898140e-08       1.03517660e-07       1.42030430e-06 
       6.61314390e-08       1.03517660e-07       1.41929025e-06 
      -7.66113586e-08       1.04531696e-07       1.41929018e-06 
      -6.61529835e-08       1.04531697e-07       1.42030422e-06 
       7.65898140e-08       1.03517660e-07       1.42030430e-06 
       6.61314390e-08       1.03517660e-07       1.41929025e-06 
      -7.66113586e-08       1.04531696e-07       1.41929018e-06 
      -6.61529835e-08       1.04531697e-07       1.42030422e-06 
       7.86790664e-08       1.10882821e-07       1.52107642e-06 
       6.79354066e-08       1.10882820e-07       1.52002857e-06 
      -7.87011398e-08       1.11930658e-07       1.52002850e-06 
      -6.79574805e-08       1.11930658e-07       1.52107635e-06 
       7.86790664e-08       1.10882821e-07       1.52107642e-06 
       6.79354066e-08       1.10882820e-07       1.52002857e-06 
      -7.87011398e-08       1.11930658e-07       1.52002850e-06 
      -6.79574805e-08       1.11930658e-07       1.52107635e-06 
       8.07103637e-08       1.18443873e-07       1.62452221e-06 
       6.96893321e-08       1.18443873e-07       1.62344056e-06 
      -8.07329705e-08       1.19525511e-07       1.62344048e-06 
      -6.97119389e-08       1.19525511e-07       1.62452213e-06 
       8.07103637e-08       1.18443873e-07       1.62452221e-06 
       6.96893321e-08       1.18443873e-07       1.62344056e-06 
      -8.07329705e-08       1.19525511e-07       1.62344048e-06 
      -6.97119389e-08       1.19525511e-07       1.62452213e-06 
       8.26837057e-08       1.26195308e-07       1.73056645e-06 
       7.13932140e-08       1.26195307e-07       1.72945100e-06 
      -8.27068516e-08       1.27310746e-07       1.72945092e-06 
      -7.14163604e-08       1.27310747e-07       1.73056637e-06 
       8.26837057e-08       1.26195308e-07       1.73056645e-06 
       7.13932140e-08       1.26195307e-07       1.72945100e-06 
      -8.27068516e-08       1.27310746e-07       1.72945092e-06 
      -7.14163604e-08       1.27310747e-07       1.73056637e-06 
       8.45990922e-08       1.34131616e-07       1.83913397e-06 
       7.30470533e-08       1.34131615e-07       1.83798472e-06 
      -8.46227821e-08       1.35280855e-07       1.83798463e-06 
      -7.30707437e-08       1.35280855e-07       1.83913388e-06 
       8.45990917e-08       1.34131616e-07       1.83913397e-06 
       7.30470533e-08       1.34131615e-07       1.83798472e-06 
      -8.46227821e-08       1.35280855e-07       1.83798463e-06 
      -7.30707437e-08       1.35280855e-07       1.83913388e-06 
       8.64604792e-08       1.42249663e-07       1.95014898e-06 
       7.46542783e-08       1.42249662e-07       1.94897043e-06 
      -8.64845338e-08       1.43428196e-07       1.94897034e-06 
      -7.46783329e-08       1.43428196e-07       1.95014888e-06 
       8.64604792e-08       1.42249663e-07       1.95014898e-06 
       7.46542783e-08       1.42249662e-07       1.94897043e-06 
      -8.64845338e-08       1.43428196e-07       1.94897034e-06 
      -7.46783329e-08       1.43428196e-07       1.95014888e-06 
       8.82716380e-08       1.50542298e-07       2.06354688e-06 
       7.62181318e-08       1.50542298e-07       2.06233904e-06 
      -8.82960625e-08       1.51750125e-07       2.06233894e-06 
      -7.62425563e-08       1.51750126e-07       2.06354678e-06 
       8.82716380e-08       1.50542298e-07       2.06354688e-06 
       7.62181318e-08       1.50542298e-07       2.06233904e-06 
      -8.82960625e-08       1.51750125e-07       2.06233894e-06 
      -7.62425563e-08       1.51750126e-07       2.06354678e-06 
       9.00325685e-08       1.59004748e-07       2.17926251e-06 
       7.77386151e-08       1.59004747e-07       2.17802538e-06 
      -9.00573678e-08       1.60241869e-07       2.17802528e-06 
      -7.77634144e-08       1.60241869e-07       2.17926241e-06 
       9.00325685e-08       1.59004748e-07       2.17926251e-06 
       7.77386151e-08       1.59004747e-07       2.17802538e-06 
      -9.00573678e-08       1.60241869e-07       2.17802528e-06 
      -7.77634144e-08       1.60241869e-07       2.17926241e-06 
       9.17432703e-08       1.67632236e-07       2.29723070e-06 
       7.92157264e-08       1.67632235e-07       2.29596427e-06 
      -9.17684511e-08       1.68898651e-07       2.29596417e-06 
      -7.92409067e-08       1.68898651e-07       2.29723060e-06 
       9.17432703e-08       1.67632236e-07       2.29723070e-06 
       7.92157264e-08       1.67632235e-07       2.29596427e-06 
      -9.17684511e-08       1.68898651e-07       2.29596417e-06 
      -7.92409067e-08       1.68898651e-07       2.29723060e-06 
       9.34037439e-08       1.76419988e-07       2.41738629e-06 
       8.06494671e-08       1.76419987e-07       2.41609056e-06 
      -9.34293110e-08       1.77715697e-07       2.41609045e-06 
      -8.06750338e-08       1.77715697e-07       2.41738618e-06 
       9.34037439e-08       1.76419988e-07       2.41738629e-06 
       8.06494671e-08       1.76419987e-07       2.41609056e-06 
      -9.34293110e-08       1.77715697e-07       2.41609045e-06 
      -8.06750338e-08       1.77715697e-07       2.41738618e-06 
       9.50139891e-08       1.85363229e-07       2.53966408e-06 
       8.20398367e-08       1.85363229e-07       2.53833906e-06 
      -9.50399479e-08       1.86688232e-07       2.53833896e-06 
      -8.20657955e-08       1.86688233e-07       2.53966397e-06 
       9.50139891e-08       1.85363229e-07       2.53966408e-06 
       8.20398367e-08       1.85363229e-07       2.53833906e-06 
      -9.50399479e-08       1.86688232e-07       2.53833896e-06 
      -8.20657955e-08       1.86688233e-07       2.53966397e-06 
       9.65740061e-08       1.94457185e-07       2.66399893e-06 
       8.33868357e-08       1.94457184e-07       2.66264462e-06 
      -9.66003615e-08       1.95811482e-07       2.66264450e-06 
      -8.34131910e-08       1.95811482e-07       2.66399882e-06 
       9.65740061e-08       1.94457185e-07       2.66399893e-06 
       8.33868357e-08       1.94457184e-07       2.66264462e-06 
      -9.66003615e-08       1.95811482e-07       2.66264450e-06 
      -8.34131910e-08       1.95811482e-07       2.66399882e-06 
       9.80837958e-08       2.03697080e-07       2.79032565e-06 
       8.46904644e-08       2.03697079e-07       2.78894204e-06 
      -9.81105512e-08       2.05080671e-07       2.78894193e-06 
      -8.47172199e-08       2.05080671e-07       2.79032554e-06 
       9.80837958e-08       2.03697080e-07       2.79032565e-06 
       8.46904644e-08       2.03697079e-07       2.78894204e-06 