# vtk DataFile Version 2.0
./output/onsasExample_nonLinearCantileverBlade_staitc3D_pitch numElements=10/onsasExample_nonLinearCantileverBlade_staitc3D_pitch numElements=10_0024.vtk
ASCII
DATASET UNSTRUCTURED_GRID

POINTS 800 float
       2.269162e-24      -7.180703e-02      -7.180703e-02 
       4.319738e-25       7.180703e-02      -7.180703e-02 
      -2.269162e-24       7.180703e-02       7.180703e-02 
      -4.319738e-25      -7.180703e-02       7.180703e-02 
       1.000000e-01      -7.180703e-02      -7.180703e-02 
       1.000000e-01       7.180703e-02      -7.180703e-02 
       1.000000e-01       7.180703e-02       7.180703e-02 
       1.000000e-01      -7.180703e-02       7.180703e-02 
       1.000000e-01      -7.180703e-02      -7.180703e-02 
       1.000000e-01       7.180703e-02      -7.180703e-02 
       1.000000e-01       7.180703e-02       7.180703e-02 
       1.000000e-01      -7.180703e-02       7.180703e-02 
       2.000000e-01      -7.180703e-02      -7.180703e-02 
       2.000000e-01       7.180703e-02      -7.180703e-02 
       2.000000e-01       7.180703e-02       7.180704e-02 
       2.000000e-01      -7.180703e-02       7.180704e-02 
       2.000000e-01      -7.180703e-02      -7.180703e-02 
       2.000000e-01       7.180703e-02      -7.180703e-02 
       2.000000e-01       7.180703e-02       7.180704e-02 
       2.000000e-01      -7.180703e-02       7.180704e-02 
       3.000000e-01      -7.180703e-02      -7.180702e-02 
       3.000000e-01       7.180704e-02      -7.180702e-02 
       3.000000e-01       7.180704e-02       7.180704e-02 
       3.000000e-01      -7.180703e-02       7.180704e-02 
       3.000000e-01      -7.180703e-02      -7.180702e-02 
       3.000000e-01       7.180704e-02      -7.180702e-02 
       3.000000e-01       7.180704e-02       7.180704e-02 
       3.000000e-01      -7.180703e-02       7.180704e-02 
       4.000000e-01      -7.180703e-02      -7.180701e-02 
       4.000000e-01       7.180704e-02      -7.180701e-02 
       4.000000e-01       7.180704e-02       7.180705e-02 
       4.000000e-01      -7.180703e-02       7.180705e-02 
       4.000000e-01      -7.180703e-02      -7.180701e-02 
       4.000000e-01       7.180704e-02      -7.180701e-02 
       4.000000e-01       7.180704e-02       7.180705e-02 
       4.000000e-01      -7.180703e-02       7.180705e-02 
       5.000000e-01      -7.180702e-02      -7.180700e-02 
       5.000000e-01       7.180704e-02      -7.180700e-02 
       5.000000e-01       7.180704e-02       7.180706e-02 
       5.000000e-01      -7.180702e-02       7.180706e-02 
       5.000000e-01      -7.180702e-02      -7.180700e-02 
       5.000000e-01       7.180704e-02      -7.180700e-02 
       5.000000e-01       7.180704e-02       7.180706e-02 
       5.000000e-01      -7.180702e-02       7.180706e-02 
       6.000000e-01      -7.180702e-02      -7.180699e-02 
       6.000000e-01       7.180705e-02      -7.180699e-02 
       6.000000e-01       7.180705e-02       7.180708e-02 
       6.000000e-01      -7.180702e-02       7.180708e-02 
       6.000000e-01      -7.180702e-02      -7.180699e-02 
       6.000000e-01       7.180705e-02      -7.180699e-02 
       6.000000e-01       7.180705e-02       7.180708e-02 
       6.000000e-01      -7.180702e-02       7.180708e-02 
       7.000000e-01      -7.180701e-02      -7.180698e-02 
       7.000000e-01       7.180705e-02      -7.180698e-02 
       7.000000e-01       7.180705e-02       7.180709e-02 
       7.000000e-01      -7.180701e-02       7.180709e-02 
       7.000000e-01      -7.180701e-02      -7.180698e-02 
       7.000000e-01       7.180705e-02      -7.180698e-02 
       7.000000e-01       7.180705e-02       7.180709e-02 
       7.000000e-01      -7.180701e-02       7.180709e-02 
       8.000000e-01      -7.180701e-02      -7.180696e-02 
       8.000000e-01       7.180706e-02      -7.180696e-02 
       8.000000e-01       7.180706e-02       7.180711e-02 
       8.000000e-01      -7.180701e-02       7.180711e-02 
       8.000000e-01      -7.180701e-02      -7.180696e-02 
       8.000000e-01       7.180706e-02      -7.180696e-02 
       8.000000e-01       7.180706e-02       7.180711e-02 
       8.000000e-01      -7.180701e-02       7.180711e-02 
       9.000000e-01      -7.180700e-02      -7.180694e-02 
       9.000000e-01       7.180706e-02      -7.180694e-02 
       9.000000e-01       7.180707e-02       7.180713e-02 
       9.000000e-01      -7.180700e-02       7.180713e-02 
       9.000000e-01      -7.180700e-02      -7.180694e-02 
       9.000000e-01       7.180706e-02      -7.180694e-02 
       9.000000e-01       7.180707e-02       7.180713e-02 
       9.000000e-01      -7.180700e-02       7.180713e-02 
       1.000000e+00      -7.180699e-02      -7.180692e-02 
       1.000000e+00       7.180707e-02      -7.180692e-02 
       1.000000e+00       7.180707e-02       7.180715e-02 
       1.000000e+00      -7.180699e-02       7.180715e-02 
       1.000000e+00      -7.180699e-02      -7.180692e-02 
       1.000000e+00       7.180707e-02      -7.180692e-02 
       1.000000e+00       7.180707e-02       7.180715e-02 
       1.000000e+00      -7.180699e-02       7.180715e-02 
       1.100000e+00      -7.180699e-02      -7.180689e-02 
       1.100000e+00       7.180708e-02      -7.180690e-02 
       1.100000e+00       7.180708e-02       7.180717e-02 
       1.100000e+00      -7.180699e-02       7.180717e-02 
       1.100000e+00      -7.180699e-02      -7.180689e-02 
       1.100000e+00       7.180708e-02      -7.180690e-02 
       1.100000e+00       7.180708e-02       7.180717e-02 
       1.100000e+00      -7.180699e-02       7.180717e-02 
       1.200000e+00      -7.180698e-02      -7.180687e-02 
       1.200000e+00       7.180709e-02      -7.180687e-02 
       1.200000e+00       7.180709e-02       7.180720e-02 
       1.200000e+00      -7.180698e-02       7.180720e-02 
       1.200000e+00      -7.180698e-02      -7.180687e-02 
       1.200000e+00       7.180709e-02      -7.180687e-02 
       1.200000e+00       7.180709e-02       7.180720e-02 
       1.200000e+00      -7.180698e-02       7.180720e-02 
       1.300000e+00      -7.180697e-02      -7.180684e-02 
       1.300000e+00       7.180710e-02      -7.180684e-02 
       1.300000e+00       7.180710e-02       7.180722e-02 
       1.300000e+00      -7.180697e-02       7.180722e-02 
       1.300000e+00      -7.180697e-02      -7.180684e-02 
       1.300000e+00       7.180710e-02      -7.180684e-02 
       1.300000e+00       7.180710e-02       7.180722e-02 
       1.300000e+00      -7.180697e-02       7.180722e-02 
       1.400000e+00      -7.180696e-02      -7.180681e-02 
       1.400000e+00       7.180711e-02      -7.180681e-02 
       1.400000e+00       7.180711e-02       7.180725e-02 
       1.400000e+00      -7.180696e-02       7.180725e-02 
       1.400000e+00      -7.180696e-02      -7.180681e-02 
       1.400000e+00       7.180711e-02      -7.180681e-02 
       1.400000e+00       7.180711e-02       7.180725e-02 
       1.400000e+00      -7.180696e-02       7.180725e-02 
       1.500000e+00      -7.180695e-02      -7.180678e-02 
       1.500000e+00       7.180712e-02      -7.180678e-02 
       1.500000e+00       7.180712e-02       7.180728e-02 
       1.500000e+00      -7.180695e-02       7.180728e-02 
       1.500000e+00      -7.180695e-02      -7.180678e-02 
       1.500000e+00       7.180712e-02      -7.180678e-02 
       1.500000e+00       7.180712e-02       7.180728e-02 
       1.500000e+00      -7.180695e-02       7.180728e-02 
       1.600000e+00      -7.180694e-02      -7.180675e-02 
       1.600000e+00       7.180713e-02      -7.180675e-02 
       1.600000e+00       7.180713e-02       7.180731e-02 
       1.600000e+00      -7.180694e-02       7.180732e-02 
       1.600000e+00      -7.180694e-02      -7.180675e-02 
       1.600000e+00       7.180713e-02      -7.180675e-02 
       1.600000e+00       7.180713e-02       7.180731e-02 
       1.600000e+00      -7.180694e-02       7.180732e-02 
       1.700000e+00      -7.180693e-02      -7.180672e-02 
       1.700000e+00       7.180714e-02      -7.180672e-02 
       1.700000e+00       7.180714e-02       7.180735e-02 
       1.700000e+00      -7.180693e-02       7.180735e-02 
       1.700000e+00      -7.180693e-02      -7.180672e-02 
       1.700000e+00       7.180714e-02      -7.180672e-02 
       1.700000e+00       7.180714e-02       7.180735e-02 
       1.700000e+00      -7.180693e-02       7.180735e-02 
       1.800000e+00      -7.180692e-02      -7.180668e-02 
       1.800000e+00       7.180715e-02      -7.180668e-02 
       1.800000e+00       7.180715e-02       7.180738e-02 
       1.800000e+00      -7.180691e-02       7.180739e-02 
       1.800000e+00      -7.180692e-02      -7.180668e-02 
       1.800000e+00       7.180715e-02      -7.180668e-02 
       1.800000e+00       7.180715e-02       7.180738e-02 
       1.800000e+00      -7.180691e-02       7.180739e-02 
       1.900000e+00      -7.180690e-02      -7.180664e-02 
       1.900000e+00       7.180716e-02      -7.180664e-02 
       1.900000e+00       7.180717e-02       7.180742e-02 
       1.900000e+00      -7.180690e-02       7.180742e-02 
       1.900000e+00      -7.180690e-02      -7.180664e-02 
       1.900000e+00       7.180716e-02      -7.180664e-02 
       1.900000e+00       7.180717e-02       7.180742e-02 
       1.900000e+00      -7.180690e-02       7.180742e-02 
       2.000000e+00      -7.180689e-02      -7.180660e-02 
       2.000000e+00       7.180718e-02      -7.180661e-02 
       2.000000e+00       7.180718e-02       7.180746e-02 
       2.000000e+00      -7.180689e-02       7.180746e-02 
       2.000000e+00      -7.180689e-02      -7.180660e-02 
       2.000000e+00       7.180718e-02      -7.180661e-02 
       2.000000e+00       7.180718e-02       7.180746e-02 
       2.000000e+00      -7.180689e-02       7.180746e-02 
       2.100000e+00      -7.180688e-02      -7.180656e-02 
[...]
POINT_DATA       800 
VECTORS Displacements float
       2.26916236e-24      -1.38777878e-17      -1.38777878e-17 
       4.31973823e-25       1.38777878e-17      -1.38777878e-17 
      -2.26916236e-24       1.38777878e-17       1.38777878e-17 
      -4.31973823e-25      -1.38777878e-17       1.38777878e-17 
       2.32986638e-09       3.57169100e-10       1.27058737e-09 
       1.15488336e-09       3.57169128e-10       1.16415236e-09 
      -2.33058339e-09       4.63604127e-10       1.16415234e-09 
      -1.15560035e-09       4.63604086e-10       1.27058736e-09 
       2.32986638e-09       3.57169100e-10       1.27058737e-09 
       1.15488336e-09       3.57169128e-10       1.16415236e-09 
      -2.33058339e-09       4.63604127e-10       1.16415234e-09 
      -1.15560035e-09       4.63604086e-10       1.27058736e-09 
       4.61495819e-09       1.52463117e-09       4.94482577e-09 
       2.28756894e-09       1.52463120e-09       4.73195573e-09 
      -4.61639282e-09       1.73750114e-09       4.73195558e-09 
      -2.28900354e-09       1.73750112e-09       4.94482563e-09 
       4.61495819e-09       1.52463117e-09       4.94482577e-09 
       2.28756894e-09       1.52463120e-09       4.73195573e-09 
      -4.61639282e-09       1.73750114e-09       4.73195558e-09 
      -2.28900354e-09       1.73750112e-09       4.94482563e-09 
       6.85527551e-09       3.48666576e-09       1.09760821e-08 
       3.39805678e-09       3.48666573e-09       1.06567769e-08 
      -6.85742829e-09       3.80597061e-09       1.06567766e-08 
      -3.40020956e-09       3.80597064e-09       1.09760817e-08 
       6.85527551e-09       3.48666576e-09       1.09760821e-08 
       3.39805678e-09       3.48666573e-09       1.06567769e-08 
      -6.85742829e-09       3.80597061e-09       1.06567766e-08 
      -3.40020956e-09       3.80597064e-09       1.09760817e-08 
       9.05081815e-09       6.22755240e-09       1.93177231e-08 
       4.48634685e-09       6.22755236e-09       1.88919829e-08 
      -9.05368985e-09       6.65329213e-09       1.88919823e-08 
      -4.48921844e-09       6.65329217e-09       1.93177225e-08 
       9.05081815e-09       6.22755240e-09       1.93177231e-08 
       4.48634685e-09       6.22755236e-09       1.88919829e-08 
      -9.05368985e-09       6.65329213e-09       1.88919823e-08 
      -4.48921844e-09       6.65329217e-09       1.93177225e-08 
       1.12015864e-08       9.73157065e-09       2.99231159e-08 
       5.55243929e-09       9.73157056e-09       2.93909406e-08 
      -1.12051775e-08       1.02637452e-08       2.93909396e-08 
      -5.55603014e-09       1.02637453e-08       2.99231149e-08 
       1.12015864e-08       9.73157065e-09       2.99231159e-08 
       5.55243929e-09       9.73157056e-09       2.93909406e-08 
      -1.12051775e-08       1.02637452e-08       2.93909396e-08 
      -5.55603014e-09       1.02637453e-08       2.99231149e-08 
       1.33075800e-08       1.39830000e-08       4.27456272e-08 
       6.59633370e-09       1.39829999e-08       4.21070167e-08 
      -1.33118910e-08       1.46216094e-08       4.21070154e-08 
      -6.60064470e-09       1.46216095e-08       4.27456258e-08 
       1.33075800e-08       1.39830000e-08       4.27456272e-08 
       6.59633370e-09       1.39829999e-08       4.21070167e-08 
      -1.33118910e-08       1.46216094e-08       4.21070154e-08 
      -6.60064470e-09       1.46216095e-08       4.27456258e-08 
       1.53687995e-08       1.89661200e-08       5.77386240e-08 
       7.61803076e-09       1.89661199e-08       5.69935783e-08 
      -1.53738305e-08       1.97111642e-08       5.69935765e-08 
      -7.62306185e-09       1.97111644e-08       5.77386221e-08 
       1.53687995e-08       1.89661200e-08       5.77386240e-08 
       7.61803076e-09       1.89661199e-08       5.69935783e-08 
      -1.53738305e-08       1.97111642e-08       5.69935765e-08 
      -7.62306185e-09       1.97111644e-08       5.77386221e-08 
       1.73852439e-08       2.46652103e-08       7.48554730e-08 
       8.61752969e-09       2.46652101e-08       7.40039923e-08 
      -1.73909964e-08       2.55166893e-08       7.40039899e-08 
      -8.62328220e-09       2.55166895e-08       7.48554707e-08 
       1.73852439e-08       2.46652103e-08       7.48554730e-08 
       8.61752969e-09       2.46652101e-08       7.40039923e-08 
      -1.73909964e-08       2.55166893e-08       7.40039899e-08 
      -8.62328220e-09       2.55166895e-08       7.48554707e-08 
       1.93569141e-08       3.10645504e-08       9.40495413e-08 
       9.59483115e-09       3.10645501e-08       9.30916254e-08 
      -1.93633880e-08       3.20224640e-08       9.30916225e-08 
      -9.60130508e-09       3.20224643e-08       9.40495384e-08 
       1.93569141e-08       3.10645504e-08       9.40495413e-08 
       9.59483115e-09       3.10645501e-08       9.30916254e-08 
      -1.93633880e-08       3.20224640e-08       9.30916225e-08 
      -9.60130508e-09       3.20224643e-08       9.40495384e-08 
       2.12838096e-08       3.81484197e-08       1.15274196e-07 
       1.05499349e-08       3.81484193e-08       1.14209845e-07 
      -2.12910057e-08       3.92127681e-08       1.14209841e-07 
      -1.05571308e-08       3.92127685e-08       1.15274192e-07 
       2.12838096e-08       3.81484197e-08       1.15274196e-07 
       1.05499349e-08       3.81484193e-08       1.14209845e-07 
      -2.12910057e-08       3.92127681e-08       1.14209841e-07 
      -1.05571309e-08       3.92127685e-08       1.15274192e-07 
       2.31684156e-08       4.59069757e-08       1.38478019e-07 
       1.14841374e-08       4.59069753e-08       1.37318437e-07 
      -2.31760775e-08       4.70665548e-08       1.37318433e-07 
      -1.14917993e-08       4.70665553e-08       1.38478015e-07 
       2.31684156e-08       4.59069757e-08       1.38478019e-07 
       1.14841374e-08       4.59069753e-08       1.37318437e-07 
      -2.31760775e-08       4.70665548e-08       1.37318433e-07 
      -1.14917993e-08       4.70665553e-08       1.38478015e-07 
       2.50129601e-08       5.43202750e-08       1.63624071e-07 
       1.23984789e-08       5.43202744e-08       1.62369258e-07 
      -2.50210888e-08       5.55750847e-08       1.62369253e-07 
      -1.24066075e-08       5.55750852e-08       1.63624066e-07 
       2.50129601e-08       5.43202750e-08       1.63624071e-07 
       1.23984789e-08       5.43202744e-08       1.62369258e-07 
      -2.50210888e-08       5.55750847e-08       1.62369253e-07 
      -1.24066075e-08       5.55750852e-08       1.63624066e-07 
       2.68174427e-08       6.33742517e-08       1.90670628e-07 
       1.32929585e-08       6.33742511e-08       1.89320583e-07 
      -2.68260396e-08       6.47242921e-08       1.89320577e-07 
      -1.33015554e-08       6.47242927e-08       1.90670622e-07 
       2.68174427e-08       6.33742517e-08       1.90670628e-07 
       1.32929585e-08       6.33742511e-08       1.89320583e-07 
      -2.68260396e-08       6.47242921e-08       1.89320577e-07 
      -1.33015554e-08       6.47242927e-08       1.90670622e-07 
       2.85818633e-08       7.30548403e-08       2.19575964e-07 
       1.41675767e-08       7.30548396e-08       2.18130688e-07 
      -2.85909296e-08       7.45001113e-08       2.18130682e-07 
      -1.41766430e-08       7.45001120e-08       2.19575958e-07 
       2.85818633e-08       7.30548403e-08       2.19575964e-07 
       1.41675767e-08       7.30548396e-08       2.18130688e-07 
      -2.85909296e-08       7.45001113e-08       2.18130682e-07 
      -1.41766430e-08       7.45001120e-08       2.19575958e-07 
       3.03062220e-08       8.33479751e-08       2.50298356e-07 
       1.50223332e-08       8.33479743e-08       2.48757849e-07 
      -3.03157597e-08       8.48884767e-08       2.48757841e-07 
      -1.50318706e-08       8.48884776e-08       2.50298349e-07 
       3.03062220e-08       8.33479751e-08       2.50298356e-07 
       1.50223332e-08       8.33479743e-08       2.48757849e-07 
      -3.03157597e-08       8.48884767e-08       2.48757841e-07 
      -1.50318706e-08       8.48884776e-08       2.50298349e-07 
       3.19905189e-08       9.42395904e-08       2.82796079e-07 
       1.58572280e-08       9.42395895e-08       2.81160340e-07 
      -3.20005289e-08       9.58753227e-08       2.81160332e-07 
      -1.58672377e-08       9.58753235e-08       2.82796071e-07 
       3.19905189e-08       9.42395904e-08       2.82796079e-07 
       1.58572280e-08       9.42395895e-08       2.81160340e-07 
      -3.20005289e-08       9.58753227e-08       2.81160332e-07 
      -1.58672377e-08       9.58753235e-08       2.82796071e-07 
       3.36347543e-08       1.05715620e-07       3.17027409e-07 
       1.66722616e-08       1.05715619e-07       3.15296439e-07 
      -3.36452375e-08       1.07446583e-07       3.15296430e-07 
      -1.66827447e-08       1.07446584e-07       3.17027400e-07 
       3.36347543e-08       1.05715620e-07       3.17027409e-07 
       1.66722616e-08       1.05715619e-07       3.15296439e-07 
      -3.36452375e-08       1.07446583e-07       3.15296430e-07 
      -1.66827447e-08       1.07446584e-07       3.17027400e-07 
       3.52389278e-08       1.17762000e-07       3.52950621e-07 
       1.74674335e-08       1.17761999e-07       3.51124420e-07 
      -3.52498855e-08       1.19588193e-07       3.51124410e-07 
      -1.74783914e-08       1.19588194e-07       3.52950611e-07 
       3.52389278e-08       1.17762000e-07       3.52950621e-07 
       1.74674335e-08       1.17761999e-07       3.51124420e-07 
      -3.52498855e-08       1.19588193e-07       3.51124410e-07 
      -1.74783914e-08       1.19588194e-07       3.52950611e-07 
       3.68030397e-08       1.30364663e-07       3.90523991e-07 
       1.82427442e-08       1.30364661e-07       3.88602559e-07 
      -3.68144728e-08       1.32286087e-07       3.88602548e-07 
      -1.82541775e-08       1.32286088e-07       3.90523981e-07 
       3.68030397e-08       1.30364663e-07       3.90523991e-07 
       1.82427442e-08       1.30364661e-07       3.88602559e-07 
      -3.68144728e-08       1.32286087e-07       3.88602548e-07 
      -1.82541775e-08       1.32286088e-07       3.90523981e-07 
       3.83270895e-08       1.43509543e-07       4.29705795e-07 
       1.89981932e-08       1.43509542e-07       4.27689131e-07 
      -3.83390000e-08       1.45526198e-07       4.27689120e-07 
      -1.90101037e-08       1.45526199e-07       4.29705784e-07 
       3.83270895e-08       1.43509543e-07       4.29705795e-07 
       1.89981932e-08       1.43509542e-07       4.27689131e-07 
      -3.83390000e-08       1.45526198e-07       4.27689120e-07 
      -1.90101037e-08       1.45526199e-07       4.29705784e-07 
       3.98135245e-08       1.57188454e-07       4.70449525e-07 
       1.97350398e-08       1.57188452e-07       4.68348833e-07 
      -3.98257325e-08       1.59289135e-07       4.68348821e-07 
      -1.97472474e-08       1.59289136e-07       4.70449512e-07 
       3.98135245e-08       1.57188454e-07       4.70449525e-07 
       1.97350398e-08       1.57188452e-07       4.68348833e-07 
      -3.98257325e-08       1.59289135e-07       4.68348821e-07 
      -1.97472474e-08       1.59289136e-07       4.70449512e-07 
       4.12646108e-08       1.71383105e-07       5.12723148e-07 
       2.04543609e-08       1.71383104e-07       5.10538429e-07 
      -4.12771177e-08       1.73567814e-07       5.10538416e-07 
      -2.04668678e-08       1.73567815e-07       5.12723135e-07 
       4.12646108e-08       1.71383105e-07       5.12723148e-07 
       2.04543609e-08       1.71383104e-07       5.10538429e-07 
      -4.12771177e-08       1.73567814e-07       5.10538416e-07 
      -2.04668678e-08       1.73567815e-07       5.12723135e-07 
       4.26803486e-08       1.86081088e-07       5.56489849e-07 
       2.11561573e-08       1.86081086e-07       5.54221103e-07 
      -4.26931552e-08       1.88349822e-07       5.54221089e-07 
      -2.11689639e-08       1.88349824e-07       5.56489835e-07 
       4.26803486e-08       1.86081088e-07       5.56489849e-07 
       2.11561573e-08       1.86081086e-07       5.54221103e-07 
      -4.26931552e-08       1.88349822e-07       5.54221089e-07 
      -2.11689639e-08       1.88349824e-07       5.56489835e-07 
       4.40607368e-08       2.01269989e-07       6.01712813e-07 
       2.18404281e-08       2.01269988e-07       5.99360039e-07 
      -4.40738459e-08       2.03622751e-07       5.99360024e-07 
      -2.18535368e-08       2.03622753e-07       6.01712798e-07 
       4.40607368e-08       2.01269989e-07       6.01712813e-07 
       2.18404281e-08       2.01269988e-07       5.99360039e-07 
      -4.40738459e-08       2.03622751e-07       5.99360024e-07 
      -2.18535368e-08       2.03622753e-07       6.01712798e-07 
       4.54057765e-08       2.16937400e-07       6.48355224e-07 
       2.25071739e-08       2.16937398e-07       6.45918423e-07 
      -4.54191889e-08       2.19374188e-07       6.45918407e-07 
      -2.25205867e-08       2.19374190e-07       6.48355207e-07 
       4.54057765e-08       2.16937400e-07       6.48355224e-07 
       2.25071739e-08       2.16937398e-07       6.45918423e-07 
      -4.54191889e-08       2.19374188e-07       6.45918407e-07 
      -2.25205867e-08       2.19374190e-07       6.48355207e-07 
       4.67154675e-08       2.33070908e-07       6.96380265e-07 
       2.31563950e-08       2.33070906e-07       6.93859437e-07 
      -4.67291850e-08       2.35591723e-07       6.93859420e-07 
      -2.31701125e-08       2.35591724e-07       6.96380248e-07 
       4.67154675e-08       2.33070908e-07       6.96380265e-07 
       2.31563950e-08       2.33070906e-07       6.93859437e-07 
      -4.67291850e-08       2.35591723e-07       6.93859420e-07 
      -2.31701125e-08       2.35591724e-07       6.96380248e-07 
       4.79898095e-08       2.49658102e-07       7.45751123e-07 
       2.37880906e-08       2.49658100e-07       7.43146267e-07 
      -4.80038338e-08       2.52262944e-07       7.43146249e-07 
      -2.38021149e-08       2.52262946e-07       7.45751105e-07 
       4.79898095e-08       2.49658102e-07       7.45751123e-07 
       2.37880906e-08       2.49658100e-07       7.43146267e-07 
      -4.80038338e-08       2.52262944e-07       7.43146249e-07 
      -2.38021149e-08       2.52262946e-07       7.45751105e-07 
       4.92288033e-08       2.66686573e-07       7.96430980e-07 
       2.44022624e-08       2.66686571e-07       7.93742097e-07 
      -4.92431340e-08       2.69375442e-07       7.93742078e-07 
      -2.44165932e-08       2.69375444e-07       7.96430961e-07 
       4.92288033e-08       2.66686573e-07       7.96430980e-07 
       2.44022624e-08       2.66686571e-07       7.93742097e-07 
      -4.92431340e-08       2.69375442e-07       7.93742078e-07 
      -2.44165932e-08       2.69375444e-07       7.96430961e-07 
       5.04324476e-08       2.84143909e-07       8.48383022e-07 
       2.49989078e-08       2.84143907e-07       8.45610111e-07 
      -5.04470878e-08       2.86916804e-07       8.45610092e-07 
      -2.50135481e-08       2.86916806e-07       8.48383002e-07 
       5.04324476e-08       2.84143909e-07       8.48383022e-07 
       2.49989078e-08       2.84143907e-07       8.45610111e-07 
      -5.04470878e-08       2.86916804e-07       8.45610092e-07 
      -2.50135481e-08       2.86916806e-07       8.48383002e-07 
       5.16007432e-08       3.02017699e-07       9.01570433e-07 
       2.55780286e-08       3.02017697e-07       8.98713495e-07 
      -5.16156939e-08       3.04874621e-07       8.98713474e-07 
      -2.55929793e-08       3.04874623e-07       9.01570412e-07 
       5.16007432e-08       3.02017699e-07       9.01570433e-07 
       2.55780290e-08       3.02017697e-07       8.98713495e-07 
      -5.16156939e-08       3.04874621e-07       8.98713474e-07 
      -2.55929797e-08       3.04874623e-07       9.01570412e-07 
       5.27361075e-08       3.20301410e-07       9.55951613e-07 
       2.61408539e-08       3.20301408e-07       9.53021851e-07 
      -5.27512487e-08       3.23231155e-07       9.53021829e-07 
      -2.61559947e-08       3.23231157e-07       9.55951591e-07 
       5.27361075e-08       3.20301410e-07       9.55951613e-07 
       2.61408539e-08       3.20301408e-07       9.53021851e-07 
      -5.27512487e-08       3.23231155e-07       9.53021829e-07 
      -2.61559947e-08       3.23231157e-07       9.55951591e-07 
       5.38408358e-08       3.38978408e-07       1.01149944e-06 
       2.66884901e-08       3.38978406e-07       1.00849685e-06 
      -5.38561689e-08       3.41980976e-07       1.00849683e-06 
      -2.67038232e-08       3.41980979e-07       1.01149942e-06 
       5.38408358e-08       3.38978408e-07       1.01149944e-06 
       2.66884901e-08       3.38978406e-07       1.00849685e-06 
      -5.38561689e-08       3.41980976e-07       1.00849683e-06 
      -2.67038232e-08       3.41980979e-07       1.01149942e-06 
       5.49149286e-08       3.58037938e-07       1.06818200e-06 
       2.72209384e-08       3.58037935e-07       1.06510660e-06 
      -5.49304549e-08       3.61113328e-07       1.06510657e-06 
      -2.72364642e-08       3.61113331e-07       1.06818198e-06 
       5.49149286e-08       3.58037938e-07       1.06818200e-06 
       2.72209384e-08       3.58037935e-07       1.06510660e-06 
      -5.49304549e-08       3.61113328e-07       1.06510657e-06 
      -2.72364642e-08       3.61113331e-07       1.06818198e-06 
       5.59583859e-08       3.77469242e-07       1.12596740e-06 
       2.77381980e-08       3.77469239e-07       1.12281917e-06 
      -5.59741067e-08       3.80617456e-07       1.12281915e-06 
      -2.77539187e-08       3.80617459e-07       1.12596738e-06 
       5.59583859e-08       3.77469242e-07       1.12596740e-06 
       2.77381980e-08       3.77469239e-07       1.12281917e-06 
      -5.59741067e-08       3.80617456e-07       1.12281915e-06 
      -2.77539187e-08       3.80617459e-07       1.12596738e-06 
       5.69712069e-08       3.97261565e-07       1.18482373e-06 
       2.82402688e-08       3.97261562e-07       1.18160267e-06 
      -5.69871244e-08       4.00482602e-07       1.18160264e-06 
      -2.82561863e-08       4.00482605e-07       1.18482370e-06 
       5.69712069e-08       3.97261565e-07       1.18482373e-06 
       2.82402688e-08       3.97261562e-07       1.18160267e-06 
      -5.69871244e-08       4.00482602e-07       1.18160264e-06 
      -2.82561863e-08       4.00482605e-07       1.18482370e-06 
       5.79533923e-08       4.17404151e-07       1.24471907e-06 
       2.87271509e-08       4.17404148e-07       1.24142519e-06 
      -5.79695074e-08       4.20698011e-07       1.24142516e-06 
      -2.87432664e-08       4.20698014e-07       1.24471904e-06 
       5.79533923e-08       4.17404151e-07       1.24471907e-06 
       2.87271509e-08       4.17404148e-07       1.24142519e-06 
      -5.79695074e-08       4.20698011e-07       1.24142516e-06 
      -2.87432664e-08       4.20698014e-07       1.24471904e-06 
       5.89049423e-08       4.37886244e-07       1.30562152e-06 
       2.91988451e-08       4.37886241e-07       1.30225482e-06 
      -5.89212563e-08       4.41252927e-07       1.30225479e-06 
      -2.92151596e-08       4.41252930e-07       1.30562150e-06 
       5.89049423e-08       4.37886244e-07       1.30562152e-06 
       2.91988451e-08       4.37886241e-07       1.30225482e-06 
      -5.89212563e-08       4.41252927e-07       1.30225479e-06 
      -2.92151596e-08       4.41252930e-07       1.30562150e-06 
       5.98258567e-08       4.58697087e-07       1.36749918e-06 
       2.96553520e-08       4.58697084e-07       1.36405965e-06 
      -5.98423702e-08       4.62136593e-07       1.36405963e-06 
      -2.96718650e-08       4.62136596e-07       1.36749915e-06 
       5.98258567e-08       4.58697087e-07       1.36749918e-06 
       2.96553520e-08       4.58697084e-07       1.36405965e-06 