# vtk DataFile Version 2.0
./output/onsasExample_nonLinearCantileverBlade_staitc3D_pitch numElements=10/onsasExample_nonLinearCantileverBlade_staitc3D_pitch numElements=10_0001.vtk
ASCII
DATASET UNSTRUCTURED_GRID

POINTS 800 float
       1.797587e-27      -7.180703e-02      -7.180703e-02 
      -1.814198e-27       7.180703e-02      -7.180703e-02 
      -1.797587e-27       7.180703e-02       7.180703e-02 
       1.814198e-27      -7.180703e-02       7.180703e-02 
       1.000000e-01      -7.180703e-02      -7.180703e-02 
       1.000000e-01       7.180703e-02      -7.180703e-02 
       1.000000e-01       7.180703e-02       7.180703e-02 
       1.000000e-01      -7.180703e-02       7.180703e-02 
       1.000000e-01      -7.180703e-02      -7.180703e-02 
       1.000000e-01       7.180703e-02      -7.180703e-02 
       1.000000e-01       7.180703e-02       7.180703e-02 
       1.000000e-01      -7.180703e-02       7.180703e-02 
       2.000000e-01      -7.180703e-02      -7.180703e-02 
       2.000000e-01       7.180703e-02      -7.180703e-02 
       2.000000e-01       7.180703e-02       7.180703e-02 
       2.000000e-01      -7.180703e-02       7.180703e-02 
       2.000000e-01      -7.180703e-02      -7.180703e-02 
       2.000000e-01       7.180703e-02      -7.180703e-02 
       2.000000e-01       7.180703e-02       7.180703e-02 
       2.000000e-01      -7.180703e-02       7.180703e-02 
       3.000000e-01      -7.180703e-02      -7.180703e-02 
       3.000000e-01       7.180703e-02      -7.180703e-02 
       3.000000e-01       7.180703e-02       7.180703e-02 
       3.000000e-01      -7.180703e-02       7.180703e-02 
       3.000000e-01      -7.180703e-02      -7.180703e-02 
       3.000000e-01       7.180703e-02      -7.180703e-02 
       3.000000e-01       7.180703e-02       7.180703e-02 
       3.000000e-01      -7.180703e-02       7.180703e-02 
       4.000000e-01      -7.180703e-02      -7.180703e-02 
       4.000000e-01       7.180703e-02      -7.180703e-02 
       4.000000e-01       7.180703e-02       7.180703e-02 
       4.000000e-01      -7.180703e-02       7.180703e-02 
       4.000000e-01      -7.180703e-02      -7.180703e-02 
       4.000000e-01       7.180703e-02      -7.180703e-02 
       4.000000e-01       7.180703e-02       7.180703e-02 
       4.000000e-01      -7.180703e-02       7.180703e-02 
       5.000000e-01      -7.180703e-02      -7.180703e-02 
       5.000000e-01       7.180703e-02      -7.180703e-02 
       5.000000e-01       7.180703e-02       7.180703e-02 
       5.000000e-01      -7.180703e-02       7.180703e-02 
       5.000000e-01      -7.180703e-02      -7.180703e-02 
       5.000000e-01       7.180703e-02      -7.180703e-02 
       5.000000e-01       7.180703e-02       7.180703e-02 
       5.000000e-01      -7.180703e-02       7.180703e-02 
       6.000000e-01      -7.180703e-02      -7.180703e-02 
       6.000000e-01       7.180703e-02      -7.180703e-02 
       6.000000e-01       7.180703e-02       7.180703e-02 
       6.000000e-01      -7.180703e-02       7.180703e-02 
       6.000000e-01      -7.180703e-02      -7.180703e-02 
       6.000000e-01       7.180703e-02      -7.180703e-02 
       6.000000e-01       7.180703e-02       7.180703e-02 
       6.000000e-01      -7.180703e-02       7.180703e-02 
       7.000000e-01      -7.180703e-02      -7.180703e-02 
       7.000000e-01       7.180703e-02      -7.180703e-02 
       7.000000e-01       7.180703e-02       7.180703e-02 
       7.000000e-01      -7.180703e-02       7.180703e-02 
       7.000000e-01      -7.180703e-02      -7.180703e-02 
       7.000000e-01       7.180703e-02      -7.180703e-02 
       7.000000e-01       7.180703e-02       7.180703e-02 
       7.000000e-01      -7.180703e-02       7.180703e-02 
       8.000000e-01      -7.180703e-02      -7.180703e-02 
       8.000000e-01       7.180703e-02      -7.180703e-02 
       8.000000e-01       7.180703e-02       7.180703e-02 
       8.000000e-01      -7.180703e-02       7.180703e-02 
       8.000000e-01      -7.180703e-02      -7.180703e-02 
       8.000000e-01       7.180703e-02      -7.180703e-02 
       8.000000e-01       7.180703e-02       7.180703e-02 
       8.000000e-01      -7.180703e-02       7.180703e-02 
       9.000000e-01      -7.180703e-02      -7.180703e-02 
       9.000000e-01       7.180703e-02      -7.180703e-02 
       9.000000e-01       7.180703e-02       7.180703e-02 
       9.000000e-01      -7.180703e-02       7.180703e-02 
       9.000000e-01      -7.180703e-02      -7.180703e-02 
       9.000000e-01       7.180703e-02      -7.180703e-02 
       9.000000e-01       7.180703e-02       7.180703e-02 
       9.000000e-01      -7.180703e-02       7.180703e-02 
       1.000000e+00      -7.180703e-02      -7.180703e-02 
       1.000000e+00       7.180703e-02      -7.180703e-02 
       1.000000e+00       7.180703e-02       7.180703e-02 
       1.000000e+00      -7.180703e-02       7.180703e-02 
       1.000000e+00      -7.180703e-02      -7.180703e-02 
       1.000000e+00       7.180703e-02      -7.180703e-02 
       1.000000e+00       7.180703e-02       7.180703e-02 
       1.000000e+00      -7.180703e-02       7.180703e-02 
       1.100000e+00      -7.180703e-02      -7.180703e-02 
       1.100000e+00       7.180703e-02      -7.180703e-02 
       1.100000e+00       7.180703e-02       7.180703e-02 
       1.100000e+00      -7.180703e-02       7.180703e-02 
       1.100000e+00      -7.180703e-02      -7.180703e-02 
       1.100000e+00       7.180703e-02      -7.180703e-02 
       1.100000e+00       7.180703e-02       7.180703e-02 
       1.100000e+00      -7.180703e-02       7.180703e-02 
       1.200000e+00      -7.180703e-02      -7.180703e-02 
       1.200000e+00       7.180703e-02      -7.180703e-02 
       1.200000e+00       7.180703e-02       7.180703e-02 
       1.200000e+00      -7.180703e-02       7.180703e-02 
       1.200000e+00      -7.180703e-02      -7.180703e-02 
       1.200000e+00       7.180703e-02      -7.180703e-02 
       1.200000e+00       7.180703e-02       7.180703e-02 
       1.200000e+00      -7.180703e-02       7.180703e-02 
       1.300000e+00      -7.180703e-02      -7.180703e-02 
       1.300000e+00       7.180703e-02      -7.180703e-02 
       1.300000e+00       7.180703e-02       7.180703e-02 
       1.300000e+00      -7.180703e-02       7.180703e-02 
       1.300000e+00      -7.180703e-02      -7.180703e-02 
       1.300000e+00       7.180703e-02      -7.180703e-02 
       1.300000e+00       7.180703e-02       7.180703e-02 
       1.300000e+00      -7.180703e-02       7.180703e-02 
       1.400000e+00      -7.180703e-02      -7.180703e-02 
       1.400000e+00       7.180703e-02      -7.180703e-02 
       1.400000e+00       7.180703e-02       7.180703e-02 
       1.400000e+00      -7.180703e-02       7.180703e-02 
       1.400000e+00      -7.180703e-02      -7.180703e-02 
       1.400000e+00       7.180703e-02      -7.180703e-02 
       1.400000e+00       7.180703e-02       7.180703e-02 
       1.400000e+00      -7.180703e-02       7.180703e-02 
       1.500000e+00      -7.180703e-02      -7.180703e-02 
       1.500000e+00       7.180703e-02      -7.180703e-02 
       1.500000e+00       7.180703e-02       7.180703e-02 
       1.500000e+00      -7.180703e-02       7.180703e-02 
       1.500000e+00      -7.180703e-02      -7.180703e-02 
       1.500000e+00       7.180703e-02      -7.180703e-02 
       1.500000e+00       7.180703e-02       7.180703e-02 
       1.500000e+00      -7.180703e-02       7.180703e-02 
       1.600000e+00      -7.180703e-02      -7.180703e-02 
       1.600000e+00       7.180703e-02      -7.180703e-02 
       1.600000e+00       7.180703e-02       7.180703e-02 
       1.600000e+00      -7.180703e-02       7.180703e-02 
       1.600000e+00      -7.180703e-02      -7.180703e-02 
       1.600000e+00       7.180703e-02      -7.180703e-02 
       1.600000e+00       7.180703e-02       7.180703e-02 
       1.600000e+00      -7.180703e-02       7.180703e-02 
       1.700000e+00      -7.180703e-02      -7.180703e-02 
       1.700000e+00       7.180703e-02      -7.180703e-02 
       1.700000e+00       7.180703e-02       7.180703e-02 
       1.700000e+00      -7.180703e-02       7.180703e-02 
       1.700000e+00      -7.180703e-02      -7.180703e-02 
       1.700000e+00       7.180703e-02      -7.180703e-02 
       1.700000e+00       7.180703e-02       7.180703e-02 
       1.700000e+00      -7.180703e-02       7.180703e-02 
       1.800000e+00      -7.180703e-02      -7.180703e-02 
       1.800000e+00       7.180703e-02      -7.180703e-02 
       1.800000e+00       7.180703e-02       7.180703e-02 
       1.800000e+00      -7.180703e-02       7.180703e-02 
       1.800000e+00      -7.180703e-02      -7.180703e-02 
       1.800000e+00       7.180703e-02      -7.180703e-02 
       1.800000e+00       7.180703e-02       7.180703e-02 
       1.800000e+00      -7.180703e-02       7.180703e-02 
       1.900000e+00      -7.180703e-02      -7.180703e-02 
       1.900000e+00       7.180703e-02      -7.180703e-02 
       1.900000e+00       7.180703e-02       7.180703e-02 
       1.900000e+00      -7.180703e-02       7.180703e-02 
       1.900000e+00      -7.180703e-02      -7.180703e-02 
       1.900000e+00       7.180703e-02      -7.180703e-02 
       1.900000e+00       7.180703e-02       7.180703e-02 
       1.900000e+00      -7.180703e-02       7.180703e-02 
       2.000000e+00      -7.180703e-02      -7.180703e-02 
       2.000000e+00       7.180703e-02      -7.180703e-02 
       2.000000e+00       7.180703e-02       7.180703e-02 
       2.000000e+00      -7.180703e-02       7.180703e-02 
       2.000000e+00      -7.180703e-02      -7.180703e-02 
       2.000000e+00       7.180703e-02      -7.180703e-02 
       2.000000e+00       7.180703e-02       7.180703e-02 
       2.000000e+00      -7.180703e-02       7.180703e-02 
       2.100000e+00      -7.180703e-02      -7.180703e-02 
[...]
POINT_DATA       800 
VECTORS Displacements float
       1.79758735e-27       0.00000000e+00       0.00000000e+00 
      -1.81419762e-27       0.00000000e+00       0.00000000e+00 
      -1.79758735e-27       0.00000000e+00       0.00000000e+00 
       1.81419762e-27       0.00000000e+00       0.00000000e+00 
       5.13895870e-12       4.80171458e-15       3.58495178e-12 
       5.10767817e-12       4.80171458e-15       3.57272545e-12 
      -5.13895870e-12       1.70419234e-14       3.57272545e-12 
      -5.10767817e-12       1.70419234e-14       3.58495178e-12 
       5.13895870e-12       4.80171458e-15       3.58495178e-12 
       5.10767817e-12       4.80171458e-15       3.57272545e-12 
      -5.13895870e-12       1.70419234e-14       3.57272545e-12 
      -5.10767817e-12       1.70419234e-14       3.58495178e-12 
       1.01791631e-11       3.11833892e-14       1.42362094e-11 
       1.01171849e-11       3.11833892e-14       1.42117429e-11 
      -1.01791631e-11       5.56638069e-14       1.42117429e-11 
      -1.01171849e-11       5.56638069e-14       1.42362094e-11 
       1.01791631e-11       3.11833892e-14       1.42362094e-11 
       1.01171849e-11       3.11833892e-14       1.42117429e-11 
      -1.01791631e-11       5.56638069e-14       1.42117429e-11 
      -1.01171849e-11       5.56638069e-14       1.42362094e-11 
       1.51206270e-11       7.87148124e-14       3.18166604e-11 
       1.50285895e-11       7.87148124e-14       3.17799398e-11 
      -1.51206270e-11       1.15435439e-13       3.17799398e-11 
      -1.50285895e-11       1.15435439e-13       3.18166604e-11 
       1.51206270e-11       7.87148124e-14       3.18166604e-11 
       1.50285895e-11       7.87148124e-14       3.17799398e-11 
      -1.51206270e-11       1.15435439e-13       3.17799398e-11 
      -1.50285895e-11       1.15435439e-13       3.18166604e-11 
       1.99633643e-11       1.46979651e-13       5.61892061e-11 
       1.98418504e-11       1.46979651e-13       5.61402452e-11 
      -1.99633643e-11       1.95940486e-13       5.61402452e-11 
      -1.98418504e-11       1.95940486e-13       5.61892061e-11 
       1.99633643e-11       1.46979651e-13       5.61892061e-11 
       1.98418504e-11       1.46979651e-13       5.61402452e-11 
      -1.99633643e-11       1.95940486e-13       5.61402452e-11 
      -1.98418504e-11       1.95940486e-13       5.61892061e-11 
       2.47073473e-11       2.35561570e-13       8.72167616e-11 
       2.45569121e-11       2.35561570e-13       8.71555744e-11 
      -2.47073473e-11       2.96762614e-13       8.71555744e-11 
      -2.45569676e-11       2.96762614e-13       8.72167616e-11 
       2.47073473e-11       2.35561570e-13       8.72167616e-11 
       2.45569121e-11       2.35561570e-13       8.71555744e-11 
      -2.47073473e-11       2.96762614e-13       8.71555744e-11 
      -2.45569676e-11       2.96762614e-13       8.72167616e-11 
       2.93525204e-11       3.44058115e-13       1.24762242e-10 
       2.91738855e-11       3.44058115e-13       1.24688815e-10 
      -2.93525204e-11       4.17499368e-13       1.24688815e-10 
      -2.91738855e-11       4.17499368e-13       1.24762242e-10 
       2.93525204e-11       3.44058115e-13       1.24762242e-10 
       2.91738855e-11       3.44058115e-13       1.24688815e-10 
      -2.93525204e-11       4.17499368e-13       1.24688815e-10 
      -2.91738855e-11       4.17499368e-13       1.24762242e-10 
       3.38991057e-11       4.72011319e-13       1.68688549e-10 
       3.36927153e-11       4.72011319e-13       1.68602868e-10 
      -3.38991057e-11       5.57692781e-13       1.68602868e-10 
      -3.36927153e-11       5.57692781e-13       1.68688549e-10 
       3.38991057e-11       4.72011319e-13       1.68688549e-10 
       3.36927153e-11       4.72011319e-13       1.68602868e-10 
      -3.38991057e-11       5.57692781e-13       1.68602868e-10 
      -3.36927153e-11       5.57692781e-13       1.68688549e-10 
       3.83467702e-11       6.19046481e-13       2.18858584e-10 
       3.81134013e-11       6.19046481e-13       2.18760662e-10 
      -3.83467702e-11       7.16968152e-13       2.18760662e-10 
      -3.81134013e-11       7.16968152e-13       2.18858584e-10 
       3.83467702e-11       6.19046481e-13       2.18858584e-10 
       3.81134013e-11       6.19046481e-13       2.18760662e-10 
      -3.83467702e-11       7.16968152e-13       2.18760662e-10 
      -3.81134013e-11       7.16968152e-13       2.18858584e-10 
       4.26958469e-11       7.84705634e-13       2.75135248e-10 
       4.24359436e-11       7.84705634e-13       2.75025100e-10 
      -4.26958469e-11       8.94867513e-13       2.75025100e-10 
      -4.24359436e-11       8.94867513e-13       2.75135248e-10 
       4.26958469e-11       7.84705634e-13       2.75135248e-10 
       4.24359436e-11       7.84705634e-13       2.75025100e-10 
      -4.26958469e-11       8.94867513e-13       2.75025100e-10 
      -4.24359436e-11       8.94867513e-13       2.75135248e-10 
       4.69460026e-11       9.68600200e-13       3.37381470e-10 
       4.66604533e-11       9.68600200e-13       3.37259082e-10 
      -4.69461137e-11       1.09100229e-12       3.37259082e-10 
      -4.66603423e-11       1.09100229e-12       3.37381470e-10 
       4.69462247e-11       9.68614078e-13       3.37381456e-10 
       4.66604533e-11       9.68614078e-13       3.37259082e-10 
      -4.69461137e-11       1.09098841e-12       3.37259082e-10 
      -4.66603423e-11       1.09098841e-12       3.37381456e-10 
       5.11026776e-11       1.17096610e-12       4.05461900e-10 
       5.07915932e-11       1.17096610e-12       4.05328549e-10 
      -5.11028997e-11       1.30430389e-12       4.05328549e-10 
      -5.07918152e-11       1.30430389e-12       4.05461900e-10 
       5.11026776e-11       1.17096610e-12       4.05461900e-10 
       5.07915932e-11       1.17096610e-12       4.05328549e-10 
      -5.11028997e-11       1.30430389e-12       4.05328549e-10 
      -5.07918152e-11       1.30430389e-12       4.05461900e-10 
       5.51712009e-11       1.39074863e-12       4.79252110e-10 
       5.48354695e-11       1.39074863e-12       4.79107837e-10 
      -5.51712009e-11       1.53502211e-12       4.79107837e-10 
      -5.48352475e-11       1.53502211e-12       4.79252110e-10 
       5.51712009e-11       1.39074863e-12       4.79252110e-10 
       5.48354695e-11       1.39074863e-12       4.79107837e-10 
      -5.51712009e-11       1.53502211e-12       4.79107837e-10 
      -5.48352475e-11       1.53502211e-12       4.79252110e-10 
       5.91513505e-11       1.62757308e-12       5.58629490e-10 
       5.87911941e-11       1.62757308e-12       5.58474253e-10 
      -5.91513505e-11       1.78281001e-12       5.58474253e-10 
      -5.87911941e-11       1.78281001e-12       5.58629490e-10 
       5.91513505e-11       1.62757308e-12       5.58629490e-10 
       5.87911941e-11       1.62757308e-12       5.58474253e-10 
      -5.91513505e-11       1.78281001e-12       5.58474253e-10 
      -5.87911941e-11       1.78281001e-12       5.58629490e-10 
       6.30431263e-11       1.88110638e-12       6.43471290e-10 
       6.26592112e-11       1.88110638e-12       6.43305118e-10 
      -6.30429042e-11       2.04727901e-12       6.43305118e-10 
      -6.26589891e-11       2.04727901e-12       6.43471290e-10 
       6.30431263e-11       1.88110638e-12       6.43471290e-10 
       6.26592112e-11       1.88110638e-12       6.43305118e-10 
      -6.30429042e-11       2.04727901e-12       6.43305118e-10 
      -6.26589891e-11       2.04727901e-12       6.43471290e-10 
       6.68460842e-11       2.15091833e-12       7.33654942e-10 
       6.64392985e-11       2.15091833e-12       7.33477806e-10 
      -6.68463063e-11       2.32805442e-12       7.33477806e-10 
      -6.64392985e-11       2.32805442e-12       7.33654942e-10 
       6.68460842e-11       2.15091833e-12       7.33654942e-10 
       6.64392985e-11       2.15091833e-12       7.33477806e-10 
      -6.68463063e-11       2.32805442e-12       7.33477806e-10 
      -6.64392985e-11       2.32805442e-12       7.33654942e-10 
       7.05608905e-11       2.43667586e-12       8.29057711e-10 
       7.01314562e-11       2.43667586e-12       8.28869612e-10 
      -7.05613346e-11       2.62477540e-12       8.28869612e-10 
      -7.01319003e-11       2.62477540e-12       8.29057711e-10 
       7.05608905e-11       2.43667586e-12       8.29057711e-10 
       7.01314562e-11       2.43667586e-12       8.28869612e-10 
      -7.05613346e-11       2.62477540e-12       8.28869612e-10 
      -7.01319003e-11       2.62477540e-12       8.29057711e-10 
       7.41877670e-11       2.73800427e-12       9.29556973e-10 
       7.37363504e-11       2.73800427e-12       9.29357938e-10 
      -7.41877670e-11       2.93703950e-12       9.29357938e-10 
      -7.37363504e-11       2.93703950e-12       9.29556973e-10 
       7.41877670e-11       2.73800427e-12       9.29556973e-10 
       7.37363504e-11       2.73800427e-12       9.29357938e-10 
      -7.41877670e-11       2.93703950e-12       9.29357938e-10 
      -7.37363504e-11       2.93703950e-12       9.29556973e-10 
       7.77260478e-11       3.05450110e-12       1.03503005e-09 
       7.72530928e-11       3.05450110e-12       1.03482005e-09 
      -7.77260478e-11       3.26449978e-12       1.03482005e-09 
      -7.72530928e-11       3.26449978e-12       1.03503005e-09 
       7.77260478e-11       3.05450110e-12       1.03503005e-09 
       7.72530928e-11       3.05450110e-12       1.03482005e-09 
      -7.77260478e-11       3.26449978e-12       1.03482005e-09 
      -7.72530928e-11       3.26449978e-12       1.03503005e-09 
       8.11759548e-11       3.38581940e-12       1.14535428e-09 
       8.06821276e-11       3.38581940e-12       1.14513335e-09 
      -8.11759548e-11       3.60675378e-12       1.14513335e-09 
      -8.06816836e-11       3.60675378e-12       1.14535428e-09 
       8.11759548e-11       3.38581940e-12       1.14535428e-09 
       8.06821276e-11       3.38581940e-12       1.14513335e-09 
      -8.11759548e-11       3.60675378e-12       1.14513335e-09 
      -8.06816836e-11       3.60675378e-12       1.14535428e-09 
       8.45377102e-11       3.73157061e-12       1.26040703e-09 
       8.40234549e-11       3.73157061e-12       1.26017512e-09 
      -8.45377102e-11       3.96346844e-12       1.26017512e-09 
      -8.40230108e-11       3.96346844e-12       1.26040701e-09 
       8.45377102e-11       3.73157061e-12       1.26040701e-09 
       8.40230108e-11       3.73157061e-12       1.26017514e-09 
      -8.45377102e-11       3.96344069e-12       1.26017514e-09 
      -8.40230108e-11       3.96344069e-12       1.26040701e-09 
       8.78159767e-11       4.09201839e-12       1.38006735e-09 
       8.72812933e-11       4.09201839e-12       1.37982580e-09 
      -8.78159767e-11       4.33357517e-12       1.37982580e-09 
      -8.72817374e-11       4.33357517e-12       1.38006735e-09 
       8.78159767e-11       4.09201839e-12       1.38006735e-09 
       8.72812933e-11       4.09201839e-12       1.37982580e-09 
      -8.78159767e-11       4.33357517e-12       1.37982580e-09 
      -8.72817374e-11       4.33357517e-12       1.38006735e-09 
       9.10165276e-11       4.46620518e-12       1.50422529e-09 
       9.04623043e-11       4.46620518e-12       1.50397407e-09 
      -9.10169717e-11       4.71742090e-12       1.50397407e-09 
      -9.04627484e-11       4.71742090e-12       1.50422529e-09 
       9.10165276e-11       4.46620518e-12       1.50422529e-09 
       9.04623043e-11       4.46620518e-12       1.50397407e-09 
      -9.10169717e-11       4.71742090e-12       1.50397407e-09 
      -9.04627484e-11       4.71742090e-12       1.50422529e-09 
       9.41393630e-11       4.85381180e-12       1.63277260e-09 
       9.35660438e-11       4.85381180e-12       1.63251171e-09 
      -9.41389189e-11       5.11468645e-12       1.63251171e-09 
      -9.35660438e-11       5.11468645e-12       1.63277260e-09 
       9.41393630e-11       4.85381180e-12       1.63277260e-09 
       9.35660438e-11       4.85381180e-12       1.63251171e-09 
      -9.41389189e-11       5.11468645e-12       1.63251171e-09 
      -9.35660438e-11       5.11468645e-12       1.63277260e-09 
       9.71835945e-11       5.25447741e-12       1.76560104e-09 
       9.65920677e-11       5.25447741e-12       1.76533049e-09 
      -9.71835945e-11       5.52501100e-12       1.76533049e-09 
      -9.65920677e-11       5.52501100e-12       1.76560104e-09 
       9.71835945e-11       5.25447741e-12       1.76560104e-09 
       9.65920677e-11       5.25447741e-12       1.76533049e-09 
      -9.71835945e-11       5.52501100e-12       1.76533049e-09 
      -9.65920677e-11       5.52501100e-12       1.76560104e-09 
       1.00150110e-10       5.66788283e-12       1.90260240e-09 
       9.95408200e-11       5.66788283e-12       1.90232219e-09 
      -1.00150110e-10       5.94807537e-12       1.90232219e-09 
      -9.95408200e-11       5.94807537e-12       1.90260240e-09 
       1.00150110e-10       5.66788283e-12       1.90260240e-09 
       9.95408200e-11       5.66788283e-12       1.90232219e-09 
      -1.00150110e-10       5.94807537e-12       1.90232219e-09 
      -9.95408200e-11       5.94807537e-12       1.90260240e-09 
       1.03038911e-10       6.09368112e-12       2.04366843e-09 
       1.02411413e-10       6.09368112e-12       2.04337856e-09 
      -1.03038911e-10       6.38353259e-12       2.04337856e-09 
      -1.02411857e-10       6.38353259e-12       2.04366843e-09 
       1.03038911e-10       6.09368112e-12       2.04366843e-09 
       1.02411413e-10       6.09368112e-12       2.04337856e-09 
      -1.03038911e-10       6.38353259e-12       2.04337856e-09 
      -1.02411857e-10       6.38353259e-12       2.04366843e-09 
       1.05849551e-10       6.53158083e-12       2.18869092e-09 
       1.05205178e-10       6.53158083e-12       2.18839140e-09 
      -1.05849995e-10       6.83109125e-12       2.18839140e-09 
      -1.05205622e-10       6.83109125e-12       2.18869092e-09 
       1.05849551e-10       6.53158083e-12       2.18869092e-09 
       1.05205178e-10       6.53158083e-12       2.18839140e-09 
      -1.05849995e-10       6.83109125e-12       2.18839140e-09 
      -1.05205622e-10       6.83109125e-12       2.18869092e-09 
       1.08582476e-10       6.98122116e-12       2.33756162e-09 
       1.07921672e-10       6.98122116e-12       2.33725243e-09 
      -1.08582032e-10       7.29039051e-12       2.33725243e-09 
      -1.07921228e-10       7.29039051e-12       2.33756162e-09 
       1.08582476e-10       6.98122116e-12       2.33756162e-09 
       1.07921672e-10       6.98122116e-12       2.33725243e-09 
      -1.08582032e-10       7.29039051e-12       2.33725243e-09 
      -1.07921228e-10       7.29039051e-12       2.33756162e-09 
       1.11237242e-10       7.44226902e-12       2.49017230e-09 
       1.10560006e-10       7.44226902e-12       2.48985346e-09 
      -1.11237242e-10       7.76109732e-12       2.48985346e-09 
      -1.10560006e-10       7.76109732e-12       2.49017230e-09 
       1.11237242e-10       7.44226902e-12       2.49017230e-09 
       1.10560006e-10       7.44226902e-12       2.48985346e-09 
      -1.11237242e-10       7.76109732e-12       2.48985346e-09 
      -1.10560006e-10       7.76109732e-12       2.49017230e-09 
       1.13813847e-10       7.91440524e-12       2.64641475e-09 
       1.13121068e-10       7.91440524e-12       2.64608624e-09 
      -1.13813847e-10       8.24292024e-12       2.64608624e-09 
      -1.13121068e-10       8.24292024e-12       2.64641475e-09 
       1.13813847e-10       7.91440524e-12       2.64641475e-09 
       1.13121068e-10       7.91440524e-12       2.64608624e-09 
      -1.13813847e-10       8.24292024e-12       2.64608624e-09 
      -1.13121068e-10       8.24292024e-12       2.64641475e-09 
       1.16318066e-10       8.39796288e-12       2.80618248e-09 
       1.15610188e-10       8.39796288e-12       2.80584560e-09 
      -1.16318066e-10       8.73483230e-12       2.80584560e-09 
      -1.15610188e-10       8.73483230e-12       2.80618248e-09 
       1.16318066e-10       8.39796288e-12       2.80618248e-09 
       1.15610188e-10       8.39796288e-12       2.80584560e-09 
      -1.16318066e-10       8.73483230e-12       2.80584560e-09 
      -1.15610188e-10       8.73483230e-12       2.80618248e-09 
       1.18754340e-10       8.89198437e-12       2.96937994e-09 
       1.18031807e-10       8.89198437e-12       2.96903467e-09 
      -1.18754784e-10       9.23723598e-12       2.96903467e-09 
      -1.18031807e-10       9.23723598e-12       2.96937994e-09 
       1.18754340e-10       8.89198437e-12       2.96937994e-09 
       1.18031807e-10       8.89198437e-12       2.96903467e-09 
      -1.18754784e-10       9.23723598e-12       2.96903467e-09 
      -1.18031807e-10       9.23723598e-12       2.96937994e-09 
       1.21124000e-10       9.39617828e-12       3.13591331e-09 
       1.20386368e-10       9.39617828e-12       3.13555967e-09 
      -1.21123556e-10       9.74981207e-12       3.13555967e-09 
      -1.20385923e-10       9.74981207e-12       3.13591331e-09 
       1.21124000e-10       9.39617828e-12       3.13591331e-09 
       1.20386368e-10       9.39617828e-12       3.13555967e-09 
      -1.21123556e-10       9.74981207e-12       3.13555967e-09 
      -1.20385923e-10       9.74981207e-12       3.13591331e-09 
       1.23425270e-10       9.91029481e-12       3.30568881e-09 
       1.22673871e-10       9.91029481e-12       3.30532680e-09 
      -1.23424826e-10       1.02722830e-11       3.30532680e-09 
      -1.22673427e-10       1.02722830e-11       3.30568881e-09 
       1.23425270e-10       9.91029481e-12       3.30568881e-09 
       1.22673871e-10       9.91029481e-12       3.30532680e-09 
      -1.23424826e-10       1.02722830e-11       3.30532680e-09 
      -1.22673427e-10       1.02722830e-11       3.30568881e-09 
       1.25658595e-10       1.04340148e-11       3.47861262e-09 
       1.24893873e-10       1.04340148e-11       3.47824224e-09 
      -1.25658595e-10       1.08043852e-11       3.47824224e-09 
      -1.24893873e-10       1.08043852e-11       3.47861262e-09 
       1.25658595e-10       1.04340148e-11       3.47861262e-09 
       1.24893873e-10       1.04340148e-11       3.47824224e-09 
      -1.25658595e-10       1.08043852e-11       3.47824224e-09 
      -1.24893873e-10       1.08043852e-11       3.47861262e-09 
       1.27824862e-10       1.09670467e-11       3.65459096e-09 
       1.27046818e-10       1.09670467e-11       3.65421221e-09 
      -1.27825306e-10       1.13457993e-11       3.65421221e-09 
      -1.27047262e-10       1.13457993e-11       3.65459096e-09 
       1.27824862e-10       1.09670467e-11       3.65459096e-09 
       1.27046818e-10       1.09670467e-11       3.65421221e-09 
      -1.27825306e-10       1.13457993e-11       3.65421221e-09 
      -1.27047262e-10       1.13457993e-11       3.65459096e-09 
       1.29923627e-10       1.15091270e-11       3.83353002e-09 
       1.29132705e-10       1.15091270e-11       3.83314290e-09 
      -1.29924072e-10       1.18962340e-11       3.83314290e-09 
      -1.29133149e-10       1.18962340e-11       3.83353002e-09 
       1.29923627e-10       1.15091270e-11       3.83353002e-09 
       1.29132705e-10       1.15091270e-11       3.83314290e-09 
      -1.29924072e-10       1.18962340e-11       3.83314290e-09 
      -1.29133149e-10       1.18962340e-11       3.83353002e-09 
       1.31954891e-10       1.20599641e-11       4.01533601e-09 
       1.31151978e-10       1.20599641e-11       4.01494051e-09 
      -1.31954891e-10       1.24554533e-11       4.01494051e-09 
      -1.31151534e-10       1.24554533e-11       4.01533601e-09 
       1.31954891e-10       1.20599641e-11       4.01533601e-09 
       1.31151978e-10       1.20599641e-11       4.01494051e-09 