# vtk DataFile Version 2.0
./output/onsasExample_nonLinearCantileverBlade_staitc3D_pitch numElements=10/onsasExample_nonLinearCantileverBlade_staitc3D_pitch numElements=10_0013.vtk
ASCII
DATASET UNSTRUCTURED_GRID

POINTS 800 float
      -1.252586e-24      -7.180703e-02      -7.180703e-02 
      -2.249681e-24       7.180703e-02      -7.180703e-02 
       1.252586e-24       7.180703e-02       7.180703e-02 
       2.249681e-24      -7.180703e-02       7.180703e-02 
       1.000000e-01      -7.180703e-02      -7.180703e-02 
       1.000000e-01       7.180703e-02      -7.180703e-02 
       1.000000e-01       7.180703e-02       7.180704e-02 
       1.000000e-01      -7.180703e-02       7.180704e-02 
       1.000000e-01      -7.180703e-02      -7.180703e-02 
       1.000000e-01       7.180703e-02      -7.180703e-02 
       1.000000e-01       7.180703e-02       7.180704e-02 
       1.000000e-01      -7.180703e-02       7.180704e-02 
       2.000000e-01      -7.180703e-02      -7.180702e-02 
       2.000000e-01       7.180703e-02      -7.180702e-02 
       2.000000e-01       7.180703e-02       7.180704e-02 
       2.000000e-01      -7.180703e-02       7.180704e-02 
       2.000000e-01      -7.180703e-02      -7.180702e-02 
       2.000000e-01       7.180703e-02      -7.180702e-02 
       2.000000e-01       7.180703e-02       7.180704e-02 
       2.000000e-01      -7.180703e-02       7.180704e-02 
       3.000000e-01      -7.180703e-02      -7.180701e-02 
       3.000000e-01       7.180703e-02      -7.180701e-02 
       3.000000e-01       7.180703e-02       7.180705e-02 
       3.000000e-01      -7.180703e-02       7.180705e-02 
       3.000000e-01      -7.180703e-02      -7.180701e-02 
       3.000000e-01       7.180703e-02      -7.180701e-02 
       3.000000e-01       7.180703e-02       7.180705e-02 
       3.000000e-01      -7.180703e-02       7.180705e-02 
       4.000000e-01      -7.180703e-02      -7.180700e-02 
       4.000000e-01       7.180703e-02      -7.180700e-02 
       4.000000e-01       7.180703e-02       7.180707e-02 
       4.000000e-01      -7.180703e-02       7.180707e-02 
       4.000000e-01      -7.180703e-02      -7.180700e-02 
       4.000000e-01       7.180703e-02      -7.180700e-02 
       4.000000e-01       7.180703e-02       7.180707e-02 
       4.000000e-01      -7.180703e-02       7.180707e-02 
       5.000000e-01      -7.180703e-02      -7.180698e-02 
       5.000000e-01       7.180703e-02      -7.180698e-02 
       5.000000e-01       7.180703e-02       7.180708e-02 
       5.000000e-01      -7.180703e-02       7.180708e-02 
       5.000000e-01      -7.180703e-02      -7.180698e-02 
       5.000000e-01       7.180703e-02      -7.180698e-02 
       5.000000e-01       7.180703e-02       7.180708e-02 
       5.000000e-01      -7.180703e-02       7.180708e-02 
       6.000000e-01      -7.180703e-02      -7.180696e-02 
       6.000000e-01       7.180703e-02      -7.180696e-02 
       6.000000e-01       7.180703e-02       7.180711e-02 
       6.000000e-01      -7.180703e-02       7.180711e-02 
       6.000000e-01      -7.180703e-02      -7.180696e-02 
       6.000000e-01       7.180703e-02      -7.180696e-02 
       6.000000e-01       7.180703e-02       7.180711e-02 
       6.000000e-01      -7.180703e-02       7.180711e-02 
       7.000000e-01      -7.180703e-02      -7.180693e-02 
       7.000000e-01       7.180704e-02      -7.180693e-02 
       7.000000e-01       7.180704e-02       7.180713e-02 
       7.000000e-01      -7.180703e-02       7.180713e-02 
       7.000000e-01      -7.180703e-02      -7.180693e-02 
       7.000000e-01       7.180704e-02      -7.180693e-02 
       7.000000e-01       7.180704e-02       7.180713e-02 
       7.000000e-01      -7.180703e-02       7.180713e-02 
       8.000000e-01      -7.180703e-02      -7.180691e-02 
       8.000000e-01       7.180704e-02      -7.180691e-02 
       8.000000e-01       7.180704e-02       7.180716e-02 
       8.000000e-01      -7.180703e-02       7.180716e-02 
       8.000000e-01      -7.180703e-02      -7.180691e-02 
       8.000000e-01       7.180704e-02      -7.180691e-02 
       8.000000e-01       7.180704e-02       7.180716e-02 
       8.000000e-01      -7.180703e-02       7.180716e-02 
       9.000000e-01      -7.180703e-02      -7.180687e-02 
       9.000000e-01       7.180704e-02      -7.180687e-02 
       9.000000e-01       7.180704e-02       7.180719e-02 
       9.000000e-01      -7.180703e-02       7.180719e-02 
       9.000000e-01      -7.180703e-02      -7.180687e-02 
       9.000000e-01       7.180704e-02      -7.180687e-02 
       9.000000e-01       7.180704e-02       7.180719e-02 
       9.000000e-01      -7.180703e-02       7.180719e-02 
       1.000000e+00      -7.180703e-02      -7.180684e-02 
       1.000000e+00       7.180704e-02      -7.180684e-02 
       1.000000e+00       7.180704e-02       7.180723e-02 
       1.000000e+00      -7.180703e-02       7.180723e-02 
       1.000000e+00      -7.180703e-02      -7.180684e-02 
       1.000000e+00       7.180704e-02      -7.180684e-02 
       1.000000e+00       7.180704e-02       7.180723e-02 
       1.000000e+00      -7.180703e-02       7.180723e-02 
       1.100000e+00      -7.180703e-02      -7.180680e-02 
       1.100000e+00       7.180704e-02      -7.180680e-02 
       1.100000e+00       7.180704e-02       7.180727e-02 
       1.100000e+00      -7.180703e-02       7.180727e-02 
       1.100000e+00      -7.180703e-02      -7.180680e-02 
       1.100000e+00       7.180704e-02      -7.180680e-02 
       1.100000e+00       7.180704e-02       7.180727e-02 
       1.100000e+00      -7.180703e-02       7.180727e-02 
       1.200000e+00      -7.180703e-02      -7.180675e-02 
       1.200000e+00       7.180704e-02      -7.180675e-02 
       1.200000e+00       7.180704e-02       7.180731e-02 
       1.200000e+00      -7.180703e-02       7.180731e-02 
       1.200000e+00      -7.180703e-02      -7.180675e-02 
       1.200000e+00       7.180704e-02      -7.180675e-02 
       1.200000e+00       7.180704e-02       7.180731e-02 
       1.200000e+00      -7.180703e-02       7.180731e-02 
       1.300000e+00      -7.180703e-02      -7.180671e-02 
       1.300000e+00       7.180704e-02      -7.180671e-02 
       1.300000e+00       7.180704e-02       7.180736e-02 
       1.300000e+00      -7.180703e-02       7.180736e-02 
       1.300000e+00      -7.180703e-02      -7.180671e-02 
       1.300000e+00       7.180704e-02      -7.180671e-02 
       1.300000e+00       7.180704e-02       7.180736e-02 
       1.300000e+00      -7.180703e-02       7.180736e-02 
       1.400000e+00      -7.180702e-02      -7.180666e-02 
       1.400000e+00       7.180704e-02      -7.180666e-02 
       1.400000e+00       7.180704e-02       7.180741e-02 
       1.400000e+00      -7.180702e-02       7.180741e-02 
       1.400000e+00      -7.180702e-02      -7.180666e-02 
       1.400000e+00       7.180704e-02      -7.180666e-02 
       1.400000e+00       7.180704e-02       7.180741e-02 
       1.400000e+00      -7.180702e-02       7.180741e-02 
       1.500000e+00      -7.180702e-02      -7.180661e-02 
       1.500000e+00       7.180704e-02      -7.180661e-02 
       1.500000e+00       7.180704e-02       7.180746e-02 
       1.500000e+00      -7.180702e-02       7.180746e-02 
       1.500000e+00      -7.180702e-02      -7.180661e-02 
       1.500000e+00       7.180704e-02      -7.180661e-02 
       1.500000e+00       7.180704e-02       7.180746e-02 
       1.500000e+00      -7.180702e-02       7.180746e-02 
       1.600000e+00      -7.180702e-02      -7.180655e-02 
       1.600000e+00       7.180704e-02      -7.180655e-02 
       1.600000e+00       7.180704e-02       7.180752e-02 
       1.600000e+00      -7.180702e-02       7.180752e-02 
       1.600000e+00      -7.180702e-02      -7.180655e-02 
       1.600000e+00       7.180704e-02      -7.180655e-02 
       1.600000e+00       7.180704e-02       7.180752e-02 
       1.600000e+00      -7.180702e-02       7.180752e-02 
       1.700000e+00      -7.180702e-02      -7.180649e-02 
       1.700000e+00       7.180704e-02      -7.180649e-02 
       1.700000e+00       7.180704e-02       7.180757e-02 
       1.700000e+00      -7.180702e-02       7.180757e-02 
       1.700000e+00      -7.180702e-02      -7.180649e-02 
       1.700000e+00       7.180704e-02      -7.180649e-02 
       1.700000e+00       7.180704e-02       7.180757e-02 
       1.700000e+00      -7.180702e-02       7.180757e-02 
       1.800000e+00      -7.180702e-02      -7.180643e-02 
       1.800000e+00       7.180705e-02      -7.180643e-02 
       1.800000e+00       7.180705e-02       7.180764e-02 
       1.800000e+00      -7.180702e-02       7.180764e-02 
       1.800000e+00      -7.180702e-02      -7.180643e-02 
       1.800000e+00       7.180705e-02      -7.180643e-02 
       1.800000e+00       7.180705e-02       7.180764e-02 
       1.800000e+00      -7.180702e-02       7.180764e-02 
       1.900000e+00      -7.180702e-02      -7.180637e-02 
       1.900000e+00       7.180705e-02      -7.180637e-02 
       1.900000e+00       7.180705e-02       7.180770e-02 
       1.900000e+00      -7.180702e-02       7.180770e-02 
       1.900000e+00      -7.180702e-02      -7.180637e-02 
       1.900000e+00       7.180705e-02      -7.180637e-02 
       1.900000e+00       7.180705e-02       7.180770e-02 
       1.900000e+00      -7.180702e-02       7.180770e-02 
       2.000000e+00      -7.180702e-02      -7.180630e-02 
       2.000000e+00       7.180705e-02      -7.180630e-02 
       2.000000e+00       7.180705e-02       7.180777e-02 
       2.000000e+00      -7.180702e-02       7.180777e-02 
       2.000000e+00      -7.180702e-02      -7.180630e-02 
       2.000000e+00       7.180705e-02      -7.180630e-02 
       2.000000e+00       7.180705e-02       7.180777e-02 
       2.000000e+00      -7.180702e-02       7.180777e-02 
       2.100000e+00      -7.180702e-02      -7.180623e-02 
[...]
POINT_DATA       800 
VECTORS Displacements float
      -1.25258566e-24      -2.77555756e-17      -1.38777878e-17 
      -2.24968096e-24       1.38777878e-17      -1.38777878e-17 
       1.25258566e-24       2.77555756e-17       1.38777878e-17 
       2.24968096e-24      -1.38777878e-17       1.38777878e-17 
       3.04534957e-09       4.19426993e-11       2.08560424e-09 
       2.91578336e-09       4.19427409e-11       2.07898239e-09 
      -3.04605634e-09       4.85645690e-11       2.07898229e-09 
      -2.91649013e-09       4.85645274e-11       2.08560413e-09 
       3.04534957e-09       4.19426993e-11       2.08560424e-09 
       2.91578336e-09       4.19427409e-11       2.07898239e-09 
      -3.04605634e-09       4.85645690e-11       2.07898229e-09 
      -2.91649013e-09       4.85645274e-11       2.08560413e-09 
       6.03217651e-09       1.73236980e-10       8.28261831e-09 
       5.77553363e-09       1.73237022e-10       8.26937462e-09 
      -6.03359165e-09       1.86480706e-10       8.26937416e-09 
      -5.77694875e-09       1.86480664e-10       8.28261786e-09 
       6.03217651e-09       1.73236980e-10       8.28261831e-09 
       5.77553363e-09       1.73237022e-10       8.26937462e-09 
      -6.03359165e-09       1.86480706e-10       8.26937416e-09 
      -5.77694875e-09       1.86480664e-10       8.28261786e-09 
       8.96048086e-09       3.92149369e-10       1.85112769e-08 
       8.57925081e-09       3.92149410e-10       1.84914114e-08 
      -8.96260588e-09       4.12014922e-10       1.84914103e-08 
      -8.58137583e-09       4.12014894e-10       1.85112759e-08 
       8.96048086e-09       3.92149369e-10       1.85112769e-08 
       8.57925081e-09       3.92149410e-10       1.84914114e-08 
      -8.96260588e-09       4.12014922e-10       1.84914103e-08 
      -8.58137583e-09       4.12014894e-10       1.85112759e-08 
       1.18302624e-08       6.96946348e-10       3.26918148e-08 
       1.13269348e-08       6.96946376e-10       3.26653274e-08 
      -1.18330991e-08       7.23433716e-10       3.26653255e-08 
      -1.13297715e-08       7.23433688e-10       3.26918129e-08 
       1.18302624e-08       6.96946348e-10       3.26918148e-08 
       1.13269348e-08       6.96946376e-10       3.26653274e-08 
      -1.18330991e-08       7.23433716e-10       3.26653255e-08 
      -1.13297715e-08       7.23433688e-10       3.26918129e-08 
       1.46415216e-08       1.08589439e-09       5.07444666e-08 
       1.40185860e-08       1.08589442e-09       5.07113574e-08 
      -1.46450712e-08       1.11900357e-09       5.07113545e-08 
      -1.40221355e-08       1.11900354e-09       5.07444638e-08 
       1.46415216e-08       1.08589439e-09       5.07444666e-08 
       1.40185860e-08       1.08589442e-09       5.07113574e-08 
      -1.46450712e-08       1.11900357e-09       5.07113545e-08 
      -1.40221355e-08       1.11900354e-09       5.07444638e-08 
       1.73942581e-08       1.55726000e-09       7.25894672e-08 
       1.66542040e-08       1.55726003e-09       7.25497361e-08 
      -1.73985221e-08       1.59699100e-09       7.25497321e-08 
      -1.66584679e-08       1.59699097e-09       7.25894632e-08 
       1.73942581e-08       1.55726000e-09       7.25894672e-08 
       1.66542040e-08       1.55726003e-09       7.25497361e-08 
      -1.73985221e-08       1.59699100e-09       7.25497321e-08 
      -1.66584679e-08       1.59699097e-09       7.25894632e-08 
       2.00884720e-08       2.10930967e-09       9.81470513e-08 
       1.92337891e-08       2.10930970e-09       9.81006982e-08 
      -2.00934519e-08       2.15566251e-09       9.81006929e-08 
      -1.92387690e-08       2.15566247e-09       9.81470459e-08 
       2.00884720e-08       2.10930967e-09       9.81470513e-08 
       1.92337891e-08       2.10930970e-09       9.81006982e-08 
      -2.00934519e-08       2.15566251e-09       9.81006929e-08 
      -1.92387690e-08       2.15566247e-09       9.81470459e-08 
       2.27241632e-08       2.74030991e-09       1.27337453e-07 
       2.17573409e-08       2.74030994e-09       1.27284479e-07 
      -2.27298608e-08       2.79328453e-09       1.27284472e-07 
      -2.17630385e-08       2.79328451e-09       1.27337447e-07 
       2.27241632e-08       2.74030991e-09       1.27337453e-07 
       2.17573409e-08       2.74030994e-09       1.27284479e-07 
      -2.27298608e-08       2.79328453e-09       1.27284472e-07 
      -2.17630385e-08       2.79328451e-09       1.27337447e-07 
       2.53013320e-08       3.44852717e-09       1.60080909e-07 
       2.42248600e-08       3.44852721e-09       1.60021312e-07 
      -2.53077482e-08       3.50812361e-09       1.60021303e-07 
      -2.42312762e-08       3.50812358e-09       1.60080900e-07 
       2.53013320e-08       3.44852717e-09       1.60080909e-07 
       2.42248600e-08       3.44852721e-09       1.60021312e-07 
      -2.53077482e-08       3.50812361e-09       1.60021303e-07 
      -2.42312762e-08       3.50812358e-09       1.60080900e-07 
       2.78199783e-08       4.23222800e-09       1.96297651e-07 
       2.66363462e-08       4.23222803e-09       1.96231433e-07 
      -2.78271145e-08       4.29844622e-09       1.96231422e-07 
      -2.66434823e-08       4.29844620e-09       1.96297641e-07 
       2.78199783e-08       4.23222800e-09       1.96297651e-07 
       2.66363460e-08       4.23222801e-09       1.96231433e-07 
      -2.78271145e-08       4.29844622e-09       1.96231422e-07 
      -2.66434824e-08       4.29844621e-09       1.96297641e-07 
       3.02833083e-08       5.09005782e-09       2.35908967e-07 
       2.89948745e-08       5.09005782e-09       2.35836824e-07 
      -3.02909136e-08       5.16220074e-09       2.35836812e-07 
      -2.90024798e-08       5.16220074e-09       2.35908955e-07 
       3.02833083e-08       5.09005782e-09       2.35908967e-07 
       2.89948745e-08       5.09005782e-09       2.35836824e-07 
      -3.02909136e-08       5.16220074e-09       2.35836812e-07 
      -2.90024798e-08       5.16220074e-09       2.35908955e-07 
       3.26942751e-08       6.02008665e-09       2.78842437e-07 
       3.13032671e-08       6.02008665e-09       2.78764368e-07 
      -3.27023526e-08       6.09815429e-09       2.78764354e-07 
      -3.13113446e-08       6.09815427e-09       2.78842422e-07 
       3.26942751e-08       6.02008665e-09       2.78842437e-07 
       3.13032671e-08       6.02008665e-09       2.78764368e-07 
      -3.27023526e-08       6.09815429e-09       2.78764354e-07 
      -3.13113446e-08       6.09815427e-09       2.78842422e-07 
       3.50528784e-08       7.02076344e-09       3.25026690e-07 
       3.35615238e-08       7.02076344e-09       3.24942697e-07 
      -3.50614318e-08       7.10475578e-09       3.24942681e-07 
      -3.35700772e-08       7.10475578e-09       3.25026674e-07 
       3.50528784e-08       7.02076344e-09       3.25026690e-07 
       3.35615238e-08       7.02076344e-09       3.24942697e-07 
      -3.50614318e-08       7.10475578e-09       3.24942681e-07 
      -3.35700772e-08       7.10475578e-09       3.25026674e-07 
       3.73591185e-08       8.09053720e-09       3.74390360e-07 
       3.57696446e-08       8.09053720e-09       3.74300442e-07 
      -3.73681510e-08       8.18045420e-09       3.74300423e-07 
      -3.57786771e-08       8.18045420e-09       3.74390341e-07 
       3.73591185e-08       8.09053720e-09       3.74390360e-07 
       3.57696446e-08       8.09053720e-09       3.74300442e-07 
      -3.73681510e-08       8.18045420e-09       3.74300423e-07 
      -3.57786771e-08       8.18045420e-09       3.74390341e-07 
       3.96129951e-08       9.22785684e-09       4.26862076e-07 
       3.79276295e-08       9.22785684e-09       4.26766233e-07 
      -3.96225104e-08       9.32369856e-09       4.26766212e-07 
      -3.79371448e-08       9.32369856e-09       4.26862055e-07 
       3.96129951e-08       9.22785684e-09       4.26862076e-07 
       3.79276295e-08       9.22785684e-09       4.26766233e-07 
      -3.96225104e-08       9.32369856e-09       4.26766212e-07 
      -3.79371448e-08       9.32369856e-09       4.26862055e-07 
       4.18145083e-08       1.04311714e-08       4.82370470e-07 
       4.00354785e-08       1.04311714e-08       4.82268702e-07 
      -4.18245096e-08       1.05329378e-08       4.82268679e-07 
      -4.00454798e-08       1.05329378e-08       4.82370447e-07 
       4.18145083e-08       1.04311714e-08       4.82370470e-07 
       4.00354785e-08       1.04311714e-08       4.82268702e-07 
      -4.18245096e-08       1.05329378e-08       4.82268679e-07 
      -4.00454798e-08       1.05329378e-08       4.82370447e-07 
       4.39636585e-08       1.16989298e-08       5.40844172e-07 
       4.20931923e-08       1.16989298e-08       5.40736480e-07 
      -4.39741485e-08       1.18066209e-08       5.40736454e-07 
      -4.21036823e-08       1.18066209e-08       5.40844147e-07 
       4.39636585e-08       1.16989298e-08       5.40844172e-07 
       4.20931923e-08       1.16989298e-08       5.40736480e-07 
      -4.39741485e-08       1.18066209e-08       5.40736454e-07 
      -4.21036823e-08       1.18066209e-08       5.40844147e-07 
       4.60604455e-08       1.30295810e-08       6.02211815e-07 
       4.41007699e-08       1.30295810e-08       6.02098198e-07 
      -4.60714278e-08       1.31431968e-08       6.02098170e-07 
      -4.41117523e-08       1.31431968e-08       6.02211787e-07 
       4.60604455e-08       1.30295810e-08       6.02211815e-07 
       4.41007699e-08       1.30295810e-08       6.02098198e-07 
      -4.60714278e-08       1.31431968e-08       6.02098170e-07 
      -4.41117523e-08       1.31431968e-08       6.02211787e-07 
       4.81048692e-08       1.44215739e-08       6.66402028e-07 
       4.60582119e-08       1.44215739e-08       6.66282487e-07 
      -4.81163465e-08       1.45411144e-08       6.66282456e-07 
      -4.60696894e-08       1.45411144e-08       6.66401997e-07 
       4.81048692e-08       1.44215739e-08       6.66402028e-07 
       4.60582119e-08       1.44215739e-08       6.66282487e-07 
      -4.81163465e-08       1.45411144e-08       6.66282456e-07 
      -4.60696894e-08       1.45411144e-08       6.66401997e-07 
       5.00969293e-08       1.58733577e-08       7.33343444e-07 
       4.79655182e-08       1.58733577e-08       7.33217977e-07 
      -5.01089055e-08       1.59988229e-08       7.33217944e-07 
      -4.79774942e-08       1.59988229e-08       7.33343410e-07 
       5.00969293e-08       1.58733577e-08       7.33343444e-07 
       4.79655182e-08       1.58733577e-08       7.33217977e-07 
      -5.01089057e-08       1.59988229e-08       7.33217944e-07 
      -4.79774942e-08       1.59988229e-08       7.33343410e-07 
       5.20397956e-08       1.73837601e-08       8.02965743e-07 
       4.98257267e-08       1.73837601e-08       8.02835049e-07 
      -5.20520955e-08       1.75144529e-08       8.02835013e-07 
      -4.98380262e-08       1.75144529e-08       8.02965707e-07 
       5.20397956e-08       1.73837601e-08       8.02965743e-07 
       4.98257267e-08       1.73837601e-08       8.02835049e-07 
      -5.20520955e-08       1.75144529e-08       8.02835013e-07 
      -4.98380262e-08       1.75144529e-08       8.02965707e-07 
       5.39364584e-08       1.89510337e-08       8.75204903e-07 
       5.16416971e-08       1.89510337e-08       8.75068981e-07 
      -5.39490861e-08       1.90869541e-08       8.75068942e-07 
      -5.16543244e-08       1.90869541e-08       8.75204864e-07 
       5.39364584e-08       1.89510337e-08       8.75204903e-07 
       5.16416971e-08       1.89510337e-08       8.75068981e-07 
      -5.39490861e-08       1.90869541e-08       8.75068942e-07 
      -5.16543244e-08       1.90869541e-08       8.75204864e-07 
       5.57869182e-08       2.05738099e-08       9.49997951e-07 
       5.34134301e-08       2.05738099e-08       9.49856801e-07 
      -5.57998767e-08       2.07149579e-08       9.49856760e-07 
      -5.34263882e-08       2.07149579e-08       9.49997909e-07 
       5.57869182e-08       2.05738099e-08       9.49997951e-07 
       5.34134301e-08       2.05738099e-08       9.49856801e-07 
      -5.57998767e-08       2.07149579e-08       9.49856760e-07 
      -5.34263882e-08       2.07149579e-08       9.49997909e-07 
       5.75911741e-08       2.22507201e-08       1.02728191e-06 
       5.51409243e-08       2.22507201e-08       1.02713554e-06 
      -5.76044683e-08       2.23970957e-08       1.02713549e-06 
      -5.51542185e-08       2.23970957e-08       1.02728187e-06 
       5.75911741e-08       2.22507201e-08       1.02728191e-06 
       5.51409243e-08       2.22507201e-08       1.02713554e-06 
      -5.76044683e-08       2.23970957e-08       1.02713549e-06 
      -5.51542185e-08       2.23970957e-08       1.02728187e-06 
       5.93492264e-08       2.39803958e-08       1.10699382e-06 
       5.68241809e-08       2.39803958e-08       1.10684221e-06 
      -5.93628604e-08       2.41319991e-08       1.10684217e-06 
      -5.68378149e-08       2.41319991e-08       1.10699377e-06 
       5.93492264e-08       2.39803958e-08       1.10699382e-06 
       5.68241809e-08       2.39803958e-08       1.10684221e-06 
      -5.93628604e-08       2.41319991e-08       1.10684217e-06 
      -5.68378149e-08       2.41319991e-08       1.10699377e-06 
       6.10610753e-08       2.57614685e-08       1.18907070e-06 
       5.84631992e-08       2.57614684e-08       1.18891386e-06 
      -6.10750530e-08       2.59182993e-08       1.18891381e-06 
      -5.84771769e-08       2.59182994e-08       1.18907065e-06 
       6.10610753e-08       2.57614685e-08       1.18907070e-06 
       5.84631992e-08       2.57614684e-08       1.18891386e-06 
      -6.10750530e-08       2.59182993e-08       1.18891381e-06 
      -5.84771769e-08       2.59182994e-08       1.18907065e-06 
       6.27267212e-08       2.75925695e-08       1.27344957e-06 
       6.00579799e-08       2.75925695e-08       1.27328751e-06 
      -6.27410461e-08       2.77546280e-08       1.27328746e-06 
      -6.00723049e-08       2.77546280e-08       1.27344952e-06 
       6.27267212e-08       2.75925695e-08       1.27344957e-06 
       6.00579799e-08       2.75925695e-08       1.27328751e-06 
      -6.27410461e-08       2.77546280e-08       1.27328746e-06 
      -6.00723049e-08       2.77546280e-08       1.27344952e-06 
       6.43461640e-08       2.94723303e-08       1.36006747e-06 
       6.16085232e-08       2.94723303e-08       1.35990018e-06 
      -6.43608389e-08       2.96396165e-08       1.35990012e-06 
      -6.16231981e-08       2.96396165e-08       1.36006741e-06 
       6.43461640e-08       2.94723303e-08       1.36006747e-06 
       6.16085232e-08       2.94723303e-08       1.35990018e-06 
      -6.43608389e-08       2.96396165e-08       1.35990012e-06 
      -6.16231981e-08       2.96396165e-08       1.36006741e-06 
       6.59194028e-08       3.13993825e-08       1.44886142e-06 
       6.31148285e-08       3.13993824e-08       1.44868890e-06 
      -6.59344326e-08       3.15718962e-08       1.44868885e-06 
      -6.31298578e-08       3.15718962e-08       1.44886136e-06 
       6.59194028e-08       3.13993825e-08       1.44886142e-06 
       6.31148285e-08       3.13993824e-08       1.44868890e-06 
      -6.59344326e-08       3.15718962e-08       1.44868885e-06 
      -6.31298578e-08       3.15718962e-08       1.44886136e-06 
       6.74464391e-08       3.33723573e-08       1.53976845e-06 
       6.45768958e-08       3.33723572e-08       1.53959071e-06 
      -6.74618263e-08       3.35500986e-08       1.53959065e-06 
      -6.45922826e-08       3.35500986e-08       1.53976839e-06 
       6.74464395e-08       3.33723573e-08       1.53976845e-06 
       6.45768958e-08       3.33723572e-08       1.53959071e-06 
      -6.74618263e-08       3.35500986e-08       1.53959065e-06 
      -6.45922826e-08       3.35500986e-08       1.53976839e-06 
       6.89304120e-08       3.53902652e-08       1.63272664e-06 
       6.59977339e-08       3.53902651e-08       1.63254437e-06 
      -6.89460404e-08       3.55725371e-08       1.63254430e-06 
      -6.60133628e-08       3.55725371e-08       1.63272658e-06 
       6.89304120e-08       3.53902652e-08       1.63272664e-06 
       6.59977339e-08       3.53902651e-08       1.63254437e-06 
      -6.89460404e-08       3.55725371e-08       1.63254430e-06 
      -6.60133628e-08       3.55725371e-08       1.63272658e-06 
       7.03743415e-08       3.74515411e-08       1.72768036e-06 
       6.73802325e-08       3.74515411e-08       1.72749355e-06 
      -7.03902159e-08       3.76383436e-08       1.72749349e-06 
      -6.73961069e-08       3.76383437e-08       1.72768029e-06 
       7.03743415e-08       3.74515411e-08       1.72768036e-06 
       6.73802325e-08       3.74515411e-08       1.72749355e-06 
      -7.03902159e-08       3.76383436e-08       1.72749349e-06 
      -6.73961069e-08       3.76383437e-08       1.72768029e-06 
       7.17782282e-08       3.95549991e-08       1.82457503e-06 
       6.87243915e-08       3.95549990e-08       1.82438370e-06 
      -7.17943514e-08       3.97463321e-08       1.82438363e-06 
      -6.87405151e-08       3.97463322e-08       1.82457497e-06 
       7.17782282e-08       3.95549991e-08       1.82457503e-06 
       6.87243915e-08       3.95549990e-08       1.82438370e-06 
      -7.17943514e-08       3.97463321e-08       1.82438363e-06 
      -6.87405151e-08       3.97463322e-08       1.82457497e-06 
       7.31420711e-08       4.16994529e-08       1.92335609e-06 
       7.00302105e-08       4.16994529e-08       1.92316022e-06 
      -7.31584482e-08       4.18953165e-08       1.92316015e-06 
      -7.00465876e-08       4.18953166e-08       1.92335602e-06 
       7.31420711e-08       4.16994529e-08       1.92335609e-06 
       7.00302105e-08       4.16994529e-08       1.92316022e-06 
      -7.31584482e-08       4.18953165e-08       1.92316015e-06 
      -7.00465876e-08       4.18953166e-08       1.92335602e-06 
       7.44658708e-08       4.38837166e-08       2.02396894e-06 
       7.12976895e-08       4.38837165e-08       2.02376855e-06 
      -7.44825051e-08       4.40841108e-08       2.02376847e-06 
      -7.13143238e-08       4.40841108e-08       2.02396887e-06 
       7.44658708e-08       4.38837166e-08       2.02396894e-06 
       7.12976895e-08       4.38837165e-08       2.02376855e-06 
      -7.44825051e-08       4.40841108e-08       2.02376847e-06 
      -7.13143238e-08       4.40841108e-08       2.02396887e-06 
       7.57496279e-08       4.61066040e-08       2.12635903e-06 
       7.25268290e-08       4.61066039e-08       2.12615410e-06 
      -7.57665228e-08       4.63115288e-08       2.12615402e-06 
      -7.25437244e-08       4.63115288e-08       2.12635895e-06 
       7.57496279e-08       4.61066040e-08       2.12635903e-06 
       7.25268290e-08       4.61066039e-08       2.12615410e-06 
      -7.57665228e-08       4.63115288e-08       2.12615402e-06 
      -7.25437244e-08       4.63115288e-08       2.12635895e-06 
       7.69933415e-08       4.83669290e-08       2.23047176e-06 
       7.37176289e-08       4.83669290e-08       2.23026230e-06 
      -7.70105011e-08       4.85763843e-08       2.23026222e-06 
      -7.37347881e-08       4.85763844e-08       2.23047168e-06 
       7.69933415e-08       4.83669290e-08       2.23047176e-06 
       7.37176289e-08       4.83669290e-08       2.23026230e-06 
      -7.70105011e-08       4.85763843e-08       2.23026222e-06 
      -7.37347881e-08       4.85763844e-08       2.23047168e-06 
       7.81970129e-08       5.06635056e-08       2.33625256e-06 
       7.48700892e-08       5.06635056e-08       2.33603857e-06 
      -7.82144394e-08       5.08774915e-08       2.33603849e-06 
      -7.48875157e-08       5.08774916e-08       2.33625248e-06 
       7.81970129e-08       5.06635056e-08       2.33625256e-06 
       7.48700892e-08       5.06635056e-08       2.33603857e-06 