# vtk DataFile Version 2.0
./output/onsasExample_nonLinearCantileverBlade_staitc3D_pitch numElements=10/onsasExample_nonLinearCantileverBlade_staitc3D_pitch numElements=10_0027.vtk
ASCII
DATASET UNSTRUCTURED_GRID

POINTS 800 float
      -1.936159e-24      -7.180703e-02      -7.180703e-02 
       1.609443e-24       7.180703e-02      -7.180703e-02 
       1.936159e-24       7.180703e-02       7.180703e-02 
      -1.609443e-24      -7.180703e-02       7.180703e-02 
       1.000000e-01      -7.180703e-02      -7.180703e-02 
       1.000000e-01       7.180703e-02      -7.180703e-02 
       1.000000e-01       7.180703e-02       7.180703e-02 
       1.000000e-01      -7.180703e-02       7.180703e-02 
       1.000000e-01      -7.180703e-02      -7.180703e-02 
       1.000000e-01       7.180703e-02      -7.180703e-02 
       1.000000e-01       7.180703e-02       7.180703e-02 
       1.000000e-01      -7.180703e-02       7.180703e-02 
       2.000000e-01      -7.180703e-02      -7.180703e-02 
       2.000000e-01       7.180704e-02      -7.180703e-02 
       2.000000e-01       7.180704e-02       7.180703e-02 
       2.000000e-01      -7.180703e-02       7.180703e-02 
       2.000000e-01      -7.180703e-02      -7.180703e-02 
       2.000000e-01       7.180704e-02      -7.180703e-02 
       2.000000e-01       7.180704e-02       7.180703e-02 
       2.000000e-01      -7.180703e-02       7.180703e-02 
       3.000000e-01      -7.180703e-02      -7.180703e-02 
       3.000000e-01       7.180704e-02      -7.180703e-02 
       3.000000e-01       7.180704e-02       7.180703e-02 
       3.000000e-01      -7.180703e-02       7.180703e-02 
       3.000000e-01      -7.180703e-02      -7.180703e-02 
       3.000000e-01       7.180704e-02      -7.180703e-02 
       3.000000e-01       7.180704e-02       7.180703e-02 
       3.000000e-01      -7.180703e-02       7.180703e-02 
       4.000000e-01      -7.180702e-02      -7.180703e-02 
       4.000000e-01       7.180704e-02      -7.180703e-02 
       4.000000e-01       7.180704e-02       7.180703e-02 
       4.000000e-01      -7.180702e-02       7.180703e-02 
       4.000000e-01      -7.180702e-02      -7.180703e-02 
       4.000000e-01       7.180704e-02      -7.180703e-02 
       4.000000e-01       7.180704e-02       7.180703e-02 
       4.000000e-01      -7.180702e-02       7.180703e-02 
       5.000000e-01      -7.180702e-02      -7.180703e-02 
       5.000000e-01       7.180705e-02      -7.180703e-02 
       5.000000e-01       7.180705e-02       7.180703e-02 
       5.000000e-01      -7.180702e-02       7.180703e-02 
       5.000000e-01      -7.180702e-02      -7.180703e-02 
       5.000000e-01       7.180705e-02      -7.180703e-02 
       5.000000e-01       7.180705e-02       7.180703e-02 
       5.000000e-01      -7.180702e-02       7.180703e-02 
       6.000000e-01      -7.180701e-02      -7.180703e-02 
       6.000000e-01       7.180705e-02      -7.180703e-02 
       6.000000e-01       7.180705e-02       7.180703e-02 
       6.000000e-01      -7.180701e-02       7.180703e-02 
       6.000000e-01      -7.180701e-02      -7.180703e-02 
       6.000000e-01       7.180705e-02      -7.180703e-02 
       6.000000e-01       7.180705e-02       7.180703e-02 
       6.000000e-01      -7.180701e-02       7.180703e-02 
       7.000000e-01      -7.180700e-02      -7.180703e-02 
       7.000000e-01       7.180706e-02      -7.180703e-02 
       7.000000e-01       7.180706e-02       7.180703e-02 
       7.000000e-01      -7.180700e-02       7.180703e-02 
       7.000000e-01      -7.180700e-02      -7.180703e-02 
       7.000000e-01       7.180706e-02      -7.180703e-02 
       7.000000e-01       7.180706e-02       7.180703e-02 
       7.000000e-01      -7.180700e-02       7.180703e-02 
       8.000000e-01      -7.180700e-02      -7.180703e-02 
       8.000000e-01       7.180707e-02      -7.180703e-02 
       8.000000e-01       7.180707e-02       7.180703e-02 
       8.000000e-01      -7.180700e-02       7.180703e-02 
       8.000000e-01      -7.180700e-02      -7.180703e-02 
       8.000000e-01       7.180707e-02      -7.180703e-02 
       8.000000e-01       7.180707e-02       7.180703e-02 
       8.000000e-01      -7.180700e-02       7.180703e-02 
       9.000000e-01      -7.180699e-02      -7.180703e-02 
       9.000000e-01       7.180708e-02      -7.180704e-02 
       9.000000e-01       7.180708e-02       7.180703e-02 
       9.000000e-01      -7.180699e-02       7.180703e-02 
       9.000000e-01      -7.180699e-02      -7.180703e-02 
       9.000000e-01       7.180708e-02      -7.180704e-02 
       9.000000e-01       7.180708e-02       7.180703e-02 
       9.000000e-01      -7.180699e-02       7.180703e-02 
       1.000000e+00      -7.180698e-02      -7.180703e-02 
       1.000000e+00       7.180709e-02      -7.180704e-02 
       1.000000e+00       7.180709e-02       7.180703e-02 
       1.000000e+00      -7.180697e-02       7.180703e-02 
       1.000000e+00      -7.180698e-02      -7.180703e-02 
       1.000000e+00       7.180709e-02      -7.180704e-02 
       1.000000e+00       7.180709e-02       7.180703e-02 
       1.000000e+00      -7.180697e-02       7.180703e-02 
       1.100000e+00      -7.180697e-02      -7.180703e-02 
       1.100000e+00       7.180710e-02      -7.180704e-02 
       1.100000e+00       7.180710e-02       7.180703e-02 
       1.100000e+00      -7.180696e-02       7.180703e-02 
       1.100000e+00      -7.180697e-02      -7.180703e-02 
       1.100000e+00       7.180710e-02      -7.180704e-02 
       1.100000e+00       7.180710e-02       7.180703e-02 
       1.100000e+00      -7.180696e-02       7.180703e-02 
       1.200000e+00      -7.180695e-02      -7.180703e-02 
       1.200000e+00       7.180711e-02      -7.180704e-02 
       1.200000e+00       7.180712e-02       7.180703e-02 
       1.200000e+00      -7.180695e-02       7.180703e-02 
       1.200000e+00      -7.180695e-02      -7.180703e-02 
       1.200000e+00       7.180711e-02      -7.180704e-02 
       1.200000e+00       7.180712e-02       7.180703e-02 
       1.200000e+00      -7.180695e-02       7.180703e-02 
       1.300000e+00      -7.180694e-02      -7.180704e-02 
       1.300000e+00       7.180713e-02      -7.180704e-02 
       1.300000e+00       7.180713e-02       7.180703e-02 
       1.300000e+00      -7.180694e-02       7.180703e-02 
       1.300000e+00      -7.180694e-02      -7.180704e-02 
       1.300000e+00       7.180713e-02      -7.180704e-02 
       1.300000e+00       7.180713e-02       7.180703e-02 
       1.300000e+00      -7.180694e-02       7.180703e-02 
       1.400000e+00      -7.180692e-02      -7.180704e-02 
       1.400000e+00       7.180714e-02      -7.180704e-02 
       1.400000e+00       7.180714e-02       7.180703e-02 
       1.400000e+00      -7.180692e-02       7.180703e-02 
       1.400000e+00      -7.180692e-02      -7.180704e-02 
       1.400000e+00       7.180714e-02      -7.180704e-02 
       1.400000e+00       7.180714e-02       7.180703e-02 
       1.400000e+00      -7.180692e-02       7.180703e-02 
       1.500000e+00      -7.180691e-02      -7.180704e-02 
       1.500000e+00       7.180716e-02      -7.180704e-02 
       1.500000e+00       7.180716e-02       7.180703e-02 
       1.500000e+00      -7.180691e-02       7.180703e-02 
       1.500000e+00      -7.180691e-02      -7.180704e-02 
       1.500000e+00       7.180716e-02      -7.180704e-02 
       1.500000e+00       7.180716e-02       7.180703e-02 
       1.500000e+00      -7.180691e-02       7.180703e-02 
       1.600000e+00      -7.180689e-02      -7.180704e-02 
       1.600000e+00       7.180717e-02      -7.180704e-02 
       1.600000e+00       7.180718e-02       7.180703e-02 
       1.600000e+00      -7.180689e-02       7.180703e-02 
       1.600000e+00      -7.180689e-02      -7.180704e-02 
       1.600000e+00       7.180717e-02      -7.180704e-02 
       1.600000e+00       7.180718e-02       7.180703e-02 
       1.600000e+00      -7.180689e-02       7.180703e-02 
       1.700000e+00      -7.180688e-02      -7.180704e-02 
       1.700000e+00       7.180719e-02      -7.180704e-02 
       1.700000e+00       7.180719e-02       7.180703e-02 
       1.700000e+00      -7.180687e-02       7.180703e-02 
       1.700000e+00      -7.180688e-02      -7.180704e-02 
       1.700000e+00       7.180719e-02      -7.180704e-02 
       1.700000e+00       7.180719e-02       7.180703e-02 
       1.700000e+00      -7.180687e-02       7.180703e-02 
       1.800000e+00      -7.180686e-02      -7.180704e-02 
       1.800000e+00       7.180721e-02      -7.180704e-02 
       1.800000e+00       7.180721e-02       7.180703e-02 
       1.800000e+00      -7.180686e-02       7.180703e-02 
       1.800000e+00      -7.180686e-02      -7.180704e-02 
       1.800000e+00       7.180721e-02      -7.180704e-02 
       1.800000e+00       7.180721e-02       7.180703e-02 
       1.800000e+00      -7.180686e-02       7.180703e-02 
       1.900000e+00      -7.180684e-02      -7.180704e-02 
       1.900000e+00       7.180723e-02      -7.180704e-02 
       1.900000e+00       7.180723e-02       7.180703e-02 
       1.900000e+00      -7.180684e-02       7.180703e-02 
       1.900000e+00      -7.180684e-02      -7.180704e-02 
       1.900000e+00       7.180723e-02      -7.180704e-02 
       1.900000e+00       7.180723e-02       7.180703e-02 
       1.900000e+00      -7.180684e-02       7.180703e-02 
       2.000000e+00      -7.180682e-02      -7.180704e-02 
       2.000000e+00       7.180725e-02      -7.180704e-02 
       2.000000e+00       7.180725e-02       7.180702e-02 
       2.000000e+00      -7.180682e-02       7.180703e-02 
       2.000000e+00      -7.180682e-02      -7.180704e-02 
       2.000000e+00       7.180725e-02      -7.180704e-02 
       2.000000e+00       7.180725e-02       7.180702e-02 
       2.000000e+00      -7.180682e-02       7.180703e-02 
       2.100000e+00      -7.180680e-02      -7.180704e-02 
[...]
POINT_DATA       800 
VECTORS Displacements float
      -1.93615865e-24       0.00000000e+00      -1.38777878e-17 
       1.60944301e-24       1.38777878e-17       0.00000000e+00 
       1.93615865e-24       0.00000000e+00       1.38777878e-17 
      -1.60944301e-24      -1.38777878e-17       0.00000000e+00 
       8.41108960e-10       5.26431343e-10       6.14836515e-11 
      -9.00402183e-10       5.26431371e-10      -1.02169731e-10 
      -8.42157788e-10       6.90084739e-10      -1.02169717e-10 
       8.99353370e-10       6.90084725e-10       6.14836654e-11 
       8.41108960e-10       5.26431343e-10       6.14836515e-11 
      -9.00402183e-10       5.26431371e-10      -1.02169731e-10 
      -8.42157788e-10       6.90084739e-10      -1.02169717e-10 
       8.99353370e-10       6.90084725e-10       6.14836654e-11 
       1.66604625e-09       2.25384533e-09       8.28007524e-11 
      -1.78351370e-09       2.25384532e-09      -2.44505999e-10 
      -1.66814404e-09       2.58115206e-09      -2.44505999e-10 
       1.78141590e-09       2.58115208e-09       8.28007524e-11 
       1.66604625e-09       2.25384533e-09       8.28007524e-11 
      -1.78351370e-09       2.25384532e-09      -2.44505999e-10 
      -1.66814404e-09       2.58115206e-09      -2.44505999e-10 
       1.78141590e-09       2.58115208e-09       8.28007524e-11 
       2.47481180e-09       5.15894173e-09       6.47305543e-11 
      -2.64933453e-09       5.15894165e-09      -4.26229579e-10 
      -2.47795873e-09       5.64990180e-09      -4.26229579e-10 
       2.64618760e-09       5.64990187e-09       6.47305681e-11 
       2.47481180e-09       5.15894173e-09       6.47305543e-11 
      -2.64933453e-09       5.15894165e-09      -4.26229579e-10 
      -2.47795873e-09       5.64990180e-09      -4.26229579e-10 
       2.64618760e-09       5.64990187e-09       6.47305681e-11 
       3.26740579e-09       9.21842033e-09       8.05236433e-12 
      -3.49786455e-09       9.21842019e-09      -6.46561138e-10 
      -3.27160188e-09       9.87303371e-09      -6.46561138e-10 
       3.49366847e-09       9.87303385e-09       8.05236433e-12 
       3.26740579e-09       9.21842033e-09       8.05236433e-12 
      -3.49786455e-09       9.21842019e-09      -6.46561138e-10 
      -3.27160188e-09       9.87303371e-09      -6.46561138e-10 
       3.49366847e-09       9.87303385e-09       8.05236433e-12 
       4.04382794e-09       1.44089810e-08      -8.64545519e-11 
      -4.32910402e-09       1.44089807e-08      -9.04721423e-10 
      -4.04907358e-09       1.52272476e-08      -9.04721423e-10 
       4.32385849e-09       1.52272478e-08      -8.64545519e-11 
       4.04382794e-09       1.44089810e-08      -8.64545519e-11 
      -4.32910402e-09       1.44089807e-08      -9.04721423e-10 
      -4.04907358e-09       1.52272476e-08      -9.04721423e-10 
       4.32385849e-09       1.52272478e-08      -8.64545519e-11 
       4.80407858e-09       2.07073233e-08      -2.18010887e-10 
      -5.14305265e-09       2.07073230e-08      -1.19993115e-09 
      -4.81037354e-09       2.16892433e-08      -1.19993115e-09 
       5.13675769e-09       2.16892436e-08      -2.18010887e-10 
       4.80407858e-09       2.07073233e-08      -2.18010887e-10 
      -5.14305265e-09       2.07073230e-08      -1.19993115e-09 
      -4.81037354e-09       2.16892433e-08      -1.19993115e-09 
       5.13675769e-09       2.16892436e-08      -2.18010887e-10 
       5.54815749e-09       2.80901473e-08      -3.85837362e-10 
      -5.93971072e-09       2.80901469e-08      -1.53141098e-09 
      -5.55550228e-09       2.92357205e-08      -1.53141100e-09 
       5.93236593e-09       2.92357210e-08      -3.85837362e-10 
       5.54815749e-09       2.80901473e-08      -3.85837362e-10 
      -5.93971072e-09       2.80901469e-08      -1.53141098e-09 
      -5.55550228e-09       2.92357205e-08      -1.53141100e-09 
       5.93236593e-09       2.92357210e-08      -3.85837362e-10 
       6.27606489e-09       3.65341526e-08      -5.89154697e-10 
      -6.71907785e-09       3.65341521e-08      -1.89838170e-09 
      -6.28445918e-09       3.78433791e-08      -1.89838170e-09 
       6.71068356e-09       3.78433797e-08      -5.89154697e-10 
       6.27606489e-09       3.65341526e-08      -5.89154697e-10 
      -6.71907785e-09       3.65341521e-08      -1.89838170e-09 
      -6.28445918e-09       3.78433791e-08      -1.89838170e-09 
       6.71068356e-09       3.78433797e-08      -5.89154697e-10 
       6.98780034e-09       4.60160392e-08      -8.27183613e-10 
      -7.48115447e-09       4.60160384e-08      -2.30006397e-09 
      -6.99724467e-09       4.74889189e-08      -2.30006399e-09 
       7.47171014e-09       4.74889196e-08      -8.27183613e-10 
       6.98780034e-09       4.60160392e-08      -8.27183613e-10 
      -7.48115447e-09       4.60160384e-08      -2.30006397e-09 
      -6.99724467e-09       4.74889189e-08      -2.30006399e-09 
       7.47171014e-09       4.74889196e-08      -8.27183613e-10 
       7.68336417e-09       5.65125066e-08      -1.09914479e-09 
      -8.22594037e-09       5.65125057e-08      -2.73567854e-09 
      -7.69385855e-09       5.81490395e-08      -2.73567856e-09 
       8.21544610e-09       5.81490404e-08      -1.09914480e-09 
       7.68336439e-09       5.65125066e-08      -1.09914482e-09 
      -8.22594026e-09       5.65125057e-08      -2.73567854e-09 
      -7.69385855e-09       5.81490395e-08      -2.73567853e-09 
       8.21544610e-09       5.81490404e-08      -1.09914480e-09 
       8.36379588e-09       6.80092769e-08      -1.41288599e-09 
      -8.95415742e-09       6.80092759e-08      -3.19584645e-09 
      -8.37496406e-09       6.97922364e-08      -3.19584643e-09 
       8.94298902e-09       6.97922374e-08      -1.41288597e-09 
       8.36379588e-09       6.80092769e-08      -1.41288599e-09 
      -8.95415742e-09       6.80092759e-08      -3.19584645e-09 
      -8.37496406e-09       6.97922364e-08      -3.19584643e-09 
       8.94298902e-09       6.97922374e-08      -1.41288597e-09 
       9.02975805e-09       8.04764804e-08      -1.75908288e-09 
      -9.66690372e-09       8.04764792e-08      -3.68847004e-09 
      -9.04160014e-09       8.24058665e-08      -3.68847003e-09 
       9.65506164e-09       8.24058677e-08      -1.75908288e-09 
       9.02975805e-09       8.04764804e-08      -1.75908288e-09 
      -9.66690372e-09       8.04764792e-08      -3.68847004e-09 
      -9.04160014e-09       8.24058665e-08      -3.68847003e-09 
       9.65506164e-09       8.24058677e-08      -1.75908288e-09 
       9.68125069e-09       9.38932696e-08      -2.13703824e-09 
      -1.03641797e-08       9.38932682e-08      -4.21285211e-09 
      -9.69376712e-09       9.59690822e-08      -4.21285211e-09 
       1.03516631e-08       9.59690836e-08      -2.13703823e-09 
       9.68125069e-09       9.38932696e-08      -2.13703824e-09 
      -1.03641797e-08       9.38932682e-08      -4.21285211e-09 
      -9.69376712e-09       9.59690822e-08      -4.21285211e-09 
       1.03516631e-08       9.59690836e-08      -2.13703823e-09 
       1.03182738e-08       1.08238797e-07      -2.54605480e-09 
      -1.10459850e-08       1.08238795e-07      -4.76829538e-09 
      -1.03314650e-08       1.10461036e-07      -4.76829537e-09 
       1.10327938e-08       1.10461038e-07      -2.54605480e-09 
       1.03182738e-08       1.08238797e-07      -2.54605480e-09 
      -1.10459850e-08       1.08238795e-07      -4.76829538e-09 
      -1.03314650e-08       1.10461036e-07      -4.76829537e-09 
       1.10327938e-08       1.10461038e-07      -2.54605480e-09 
       1.09408274e-08       1.23492215e-07      -2.98543534e-09 
      -1.17123200e-08       1.23492213e-07      -5.35410262e-09 
      -1.09546936e-08       1.25860880e-07      -5.35410262e-09 
       1.16984538e-08       1.25860882e-07      -2.98543534e-09 
       1.09408274e-08       1.23492215e-07      -2.98543534e-09 
      -1.17123200e-08       1.23492213e-07      -5.35410262e-09 
      -1.09546936e-08       1.25860880e-07      -5.35410262e-09 
       1.16984538e-08       1.25860882e-07      -2.98543534e-09 
       1.15489114e-08       1.39632675e-07      -3.45448260e-09 
      -1.23631843e-08       1.39632673e-07      -5.96957657e-09 
      -1.15634531e-08       1.42147768e-07      -5.96957657e-09 
       1.23486426e-08       1.42147769e-07      -3.45448260e-09 
       1.15489114e-08       1.39632675e-07      -3.45448260e-09 
      -1.23631843e-08       1.39632673e-07      -5.96957657e-09 
      -1.15634531e-08       1.42147768e-07      -5.96957657e-09 
       1.23486426e-08       1.42147769e-07      -3.45448260e-09 
       1.21425263e-08       1.56639332e-07      -3.95249930e-09 
      -1.29985780e-08       1.56639329e-07      -6.61402000e-09 
      -1.21577435e-08       1.59300850e-07      -6.61402000e-09 
       1.29833608e-08       1.59300852e-07      -3.95249931e-09 
       1.21425263e-08       1.56639332e-07      -3.95249930e-09 
      -1.29985780e-08       1.56639329e-07      -6.61402000e-09 
      -1.21577435e-08       1.59300850e-07      -6.61402000e-09 
       1.29833608e-08       1.59300852e-07      -3.95249931e-09 
       1.27216715e-08       1.74491336e-07      -4.47878823e-09 
      -1.36185012e-08       1.74491333e-07      -7.28673562e-09 
      -1.27375646e-08       1.77299281e-07      -7.28673563e-09 
       1.36026082e-08       1.77299283e-07      -4.47878823e-09 
       1.27216715e-08       1.74491336e-07      -4.47878823e-09 
      -1.36185012e-08       1.74491333e-07      -7.28673562e-09 
      -1.27375646e-08       1.77299281e-07      -7.28673563e-09 
       1.36026082e-08       1.77299283e-07      -4.47878823e-09 
       1.32863471e-08       1.93167840e-07      -5.03265214e-09 
      -1.42229537e-08       1.93167837e-07      -7.98702622e-09 
      -1.33029161e-08       1.96122212e-07      -7.98702623e-09 
       1.42063850e-08       1.96122214e-07      -5.03265214e-09 
       1.32863471e-08       1.93167840e-07      -5.03265214e-09 
      -1.42229537e-08       1.93167837e-07      -7.98702622e-09 
      -1.33029161e-08       1.96122212e-07      -7.98702623e-09 
       1.42063850e-08       1.96122214e-07      -5.03265214e-09 
       1.38365537e-08       2.12647997e-07      -5.61339374e-09 
      -1.48119359e-08       2.12647994e-07      -8.71419456e-09 
      -1.38537990e-08       2.15748795e-07      -8.71419457e-09 
       1.47946904e-08       2.15748798e-07      -5.61339375e-09 
       1.38365537e-08       2.12647997e-07      -5.61339375e-09 
      -1.48119359e-08       2.12647994e-07      -8.71419455e-09 
      -1.38537988e-08       2.15748795e-07      -8.71419456e-09 
       1.47946904e-08       2.15748798e-07      -5.61339376e-09 
       1.43732737e-08       2.32919981e-07      -6.22894283e-09 
      -1.53862252e-08       2.32919978e-07      -9.45894367e-09 
      -1.43909311e-08       2.36149979e-07      -9.45894368e-09 
       1.53685678e-08       2.36149983e-07      -6.22894285e-09 
       1.43732737e-08       2.32919981e-07      -6.22894283e-09 
      -1.53862252e-08       2.32919978e-07      -9.45894367e-09 
      -1.43909311e-08       2.36149979e-07      -9.45894368e-09 
       1.53685678e-08       2.36149983e-07      -6.22894285e-09 
       1.48972266e-08       2.53956376e-07      -6.87005713e-09 
      -1.59468643e-08       2.53956373e-07      -1.02292580e-08 
      -1.49152966e-08       2.57315574e-07      -1.02292580e-08 
       1.59287943e-08       2.57315577e-07      -6.87005715e-09 
       1.48972266e-08       2.53956376e-07      -6.87005713e-09 
      -1.59468643e-08       2.53956373e-07      -1.02292580e-08 
      -1.49152966e-08       2.57315574e-07      -1.02292580e-08 
       1.59287943e-08       2.57315577e-07      -6.87005715e-09 
       1.54084128e-08       2.75738786e-07      -7.53612146e-09 
      -1.64938521e-08       2.75738783e-07      -1.10245224e-08 
      -1.54268949e-08       2.79227184e-07      -1.10245224e-08 
       1.64753704e-08       2.79227187e-07      -7.53612149e-09 
       1.54084128e-08       2.75738786e-07      -7.53612146e-09 
      -1.64938521e-08       2.75738783e-07      -1.10245224e-08 
      -1.54268949e-08       2.79227184e-07      -1.10245224e-08 
       1.64753704e-08       2.79227187e-07      -7.53612149e-09 
       1.59068314e-08       2.98248817e-07      -8.22652059e-09 
      -1.70271903e-08       2.98248813e-07      -1.18441215e-08 
      -1.59257265e-08       3.01866414e-07      -1.18441216e-08 
       1.70082952e-08       3.01866418e-07      -8.22652062e-09 
       1.59068314e-08       2.98248817e-07      -8.22652059e-09 
      -1.70271903e-08       2.98248813e-07      -1.18441215e-08 
      -1.59257265e-08       3.01866414e-07      -1.18441216e-08 
       1.70082952e-08       3.01866418e-07      -8.22652062e-09 
       1.63924825e-08       3.21468073e-07      -8.94063930e-09 
      -1.75468782e-08       3.21468069e-07      -1.26874403e-08 
      -1.64117915e-08       3.25214870e-07      -1.26874403e-08 
       1.75275692e-08       3.25214874e-07      -8.94063933e-09 
       1.63924825e-08       3.21468073e-07      -8.94063930e-09 
      -1.75468782e-08       3.21468069e-07      -1.26874403e-08 
      -1.64117915e-08       3.25214870e-07      -1.26874403e-08 
       1.75275692e-08       3.25214874e-07      -8.94063933e-09 
       1.68653664e-08       3.45378160e-07      -9.67786239e-09 
      -1.80529152e-08       3.45378156e-07      -1.35538634e-08 
      -1.68850893e-08       3.49254157e-07      -1.35538634e-08 
       1.80331923e-08       3.49254161e-07      -9.67786243e-09 
       1.68653664e-08       3.45378160e-07      -9.67786239e-09 
      -1.80529152e-08       3.45378156e-07      -1.35538634e-08 
      -1.68850893e-08       3.49254157e-07      -1.35538634e-08 
       1.80331923e-08       3.49254161e-07      -9.67786243e-09 
       1.73254833e-08       3.69960683e-07      -1.04375746e-08 
      -1.85453022e-08       3.69960678e-07      -1.44427757e-08 
      -1.73456205e-08       3.73965880e-07      -1.44427757e-08 
       1.85251650e-08       3.73965884e-07      -1.04375747e-08 
       1.73254833e-08       3.69960683e-07      -1.04375746e-08 
      -1.85453022e-08       3.69960678e-07      -1.44427757e-08 
      -1.73456205e-08       3.73965880e-07      -1.44427757e-08 
       1.85251650e-08       3.73965884e-07      -1.04375747e-08 
       1.77728334e-08       3.95197246e-07      -1.12191608e-08 
      -1.90240379e-08       3.95197242e-07      -1.53535619e-08 
      -1.77933841e-08       3.99331643e-07      -1.53535619e-08 
       1.90034872e-08       3.99331648e-07      -1.12191608e-08 
       1.77728334e-08       3.95197246e-07      -1.12191608e-08 
      -1.90240379e-08       3.95197242e-07      -1.53535619e-08 
      -1.77933841e-08       3.99331643e-07      -1.53535619e-08 
       1.90034872e-08       3.99331648e-07      -1.12191608e-08 
       1.82074156e-08       4.21069456e-07      -1.20220057e-08 
      -1.94891236e-08       4.21069451e-07      -1.62856068e-08 
      -1.82283810e-08       4.25333053e-07      -1.62856069e-08 
       1.94681582e-08       4.25333058e-07      -1.20220057e-08 
       1.82074156e-08       4.21069456e-07      -1.20220057e-08 
      -1.94891236e-08       4.21069451e-07      -1.62856068e-08 
      -1.82283810e-08       4.25333053e-07      -1.62856069e-08 
       1.94681582e-08       4.25333058e-07      -1.20220057e-08 
       1.86292306e-08       4.47558917e-07      -1.28454941e-08 
      -1.99405594e-08       4.47558912e-07      -1.72382953e-08 
      -1.86506117e-08       4.51951713e-07      -1.72382953e-08 
       1.99191783e-08       4.51951718e-07      -1.28454941e-08 
       1.86292306e-08       4.47558917e-07      -1.28454941e-08 
      -1.99405594e-08       4.47558912e-07      -1.72382952e-08 
      -1.86506117e-08       4.51951713e-07      -1.72382953e-08 
       1.99191783e-08       4.51951718e-07      -1.28454942e-08 
       1.90392186e-08       4.74656256e-07      -1.36976378e-08 
      -2.03791655e-08       4.74656250e-07      -1.82024123e-08 
      -1.90608374e-08       4.79161025e-07      -1.82024124e-08 
       2.03575468e-08       4.79161031e-07      -1.36976379e-08 
       1.90392186e-08       4.74656256e-07      -1.36976378e-08 
      -2.03791655e-08       4.74656250e-07      -1.82024123e-08 
      -1.90608374e-08       4.79161025e-07      -1.82024124e-08 
       2.03575468e-08       4.79161031e-07      -1.36976379e-08 
       1.94381413e-08       5.02336509e-07      -1.45692766e-08 
      -2.08059414e-08       5.02336503e-07      -1.91860245e-08 
      -1.94599985e-08       5.06953251e-07      -1.91860246e-08 
       2.07840842e-08       5.06953257e-07      -1.45692767e-08 
       1.94381413e-08       5.02336509e-07      -1.45692766e-08 
      -2.08059414e-08       5.02336503e-07      -1.91860245e-08 
      -1.94599985e-08       5.06953251e-07      -1.91860246e-08 
       2.07840842e-08       5.06953257e-07      -1.45692767e-08 
       1.98259995e-08       5.30583734e-07      -1.54598773e-08 
      -2.12208864e-08       5.30583728e-07      -2.01885986e-08 
      -1.98480947e-08       5.35312449e-07      -2.01885987e-08 
       2.11987921e-08       5.35312455e-07      -1.54598774e-08 
       1.98259995e-08       5.30583734e-07      -1.54598773e-08 
      -2.12208864e-08       5.30583728e-07      -2.01885986e-08 
      -1.98480947e-08       5.35312449e-07      -2.01885987e-08 
       2.11987921e-08       5.35312455e-07      -1.54598774e-08 
       2.02027928e-08       5.59381988e-07      -1.63689068e-08 
      -2.16240017e-08       5.59381982e-07      -2.12096014e-08 
      -2.02251265e-08       5.64222677e-07      -2.12096015e-08 
       2.16016680e-08       5.64222683e-07      -1.63689069e-08 
       2.02027928e-08       5.59381988e-07      -1.63689068e-08 
      -2.16240017e-08       5.59381982e-07      -2.12096014e-08 
      -2.02251265e-08       5.64222677e-07      -2.12096015e-08 
       2.16016680e-08       5.64222683e-07      -1.63689069e-08 
       2.05685207e-08       5.88715329e-07      -1.72958318e-08 
      -2.20152869e-08       5.88715323e-07      -2.22484998e-08 
      -2.05910937e-08       5.93667991e-07      -2.22484999e-08 
       2.19927134e-08       5.93667997e-07      -1.72958319e-08 
       2.05685207e-08       5.88715329e-07      -1.72958318e-08 
      -2.20152869e-08       5.88715323e-07      -2.22484998e-08 
      -2.05910937e-08       5.93667991e-07      -2.22484999e-08 
       2.19927134e-08       5.93667997e-07      -1.72958319e-08 
       2.09231836e-08       6.18567815e-07      -1.82401192e-08 
      -2.23947412e-08       6.18567809e-07      -2.33047605e-08 
      -2.09459965e-08       6.23632451e-07      -2.33047606e-08 
       2.23719288e-08       6.23632457e-07      -1.82401193e-08 
       2.09231836e-08       6.18567815e-07      -1.82401192e-08 
      -2.23947412e-08       6.18567809e-07      -2.33047605e-08 
      -2.09459965e-08       6.23632451e-07      -2.33047606e-08 
       2.23719288e-08       6.23632457e-07      -1.82401193e-08 
       2.12667817e-08       6.48923504e-07      -1.92012357e-08 
      -2.27623653e-08       6.48923498e-07      -2.43778505e-08 
      -2.12898343e-08       6.54100113e-07      -2.43778506e-08 
       2.27393127e-08       6.54100120e-07      -1.92012358e-08 
       2.12667817e-08       6.48923504e-07      -1.92012357e-08 
      -2.27623653e-08       6.48923498e-07      -2.43778505e-08 
      -2.12898343e-08       6.54100113e-07      -2.43778506e-08 
       2.27393127e-08       6.54100120e-07      -1.92012358e-08 
       2.15993157e-08       6.79766454e-07      -2.01786483e-08 
      -2.31181585e-08       6.79766447e-07      -2.54672364e-08 
      -2.16226073e-08       6.85055035e-07      -2.54672365e-08 
       2.30948669e-08       6.85055042e-07      -2.01786484e-08 
       2.15993157e-08       6.79766454e-07      -2.01786483e-08 
      -2.31181585e-08       6.79766447e-07      -2.54672364e-08 