# vtk DataFile Version 2.0
./output/onsasExample_nonLinearCantileverBlade_staitc3D_pitch numElements=10/onsasExample_nonLinearCantileverBlade_staitc3D_pitch numElements=10_0002.vtk
ASCII
DATASET UNSTRUCTURED_GRID

POINTS 800 float
      -1.631007e-26      -7.180703e-02      -7.180703e-02 
      -3.415380e-27       7.180703e-02      -7.180703e-02 
       1.631007e-26       7.180703e-02       7.180703e-02 
       3.415380e-27      -7.180703e-02       7.180703e-02 
       1.000000e-01      -7.180703e-02      -7.180703e-02 
       1.000000e-01       7.180703e-02      -7.180703e-02 
       1.000000e-01       7.180703e-02       7.180703e-02 
       1.000000e-01      -7.180703e-02       7.180703e-02 
       1.000000e-01      -7.180703e-02      -7.180703e-02 
       1.000000e-01       7.180703e-02      -7.180703e-02 
       1.000000e-01       7.180703e-02       7.180703e-02 
       1.000000e-01      -7.180703e-02       7.180703e-02 
       2.000000e-01      -7.180703e-02      -7.180703e-02 
       2.000000e-01       7.180703e-02      -7.180703e-02 
       2.000000e-01       7.180703e-02       7.180703e-02 
       2.000000e-01      -7.180703e-02       7.180703e-02 
       2.000000e-01      -7.180703e-02      -7.180703e-02 
       2.000000e-01       7.180703e-02      -7.180703e-02 
       2.000000e-01       7.180703e-02       7.180703e-02 
       2.000000e-01      -7.180703e-02       7.180703e-02 
       3.000000e-01      -7.180703e-02      -7.180703e-02 
       3.000000e-01       7.180703e-02      -7.180703e-02 
       3.000000e-01       7.180703e-02       7.180703e-02 
       3.000000e-01      -7.180703e-02       7.180703e-02 
       3.000000e-01      -7.180703e-02      -7.180703e-02 
       3.000000e-01       7.180703e-02      -7.180703e-02 
       3.000000e-01       7.180703e-02       7.180703e-02 
       3.000000e-01      -7.180703e-02       7.180703e-02 
       4.000000e-01      -7.180703e-02      -7.180703e-02 
       4.000000e-01       7.180703e-02      -7.180703e-02 
       4.000000e-01       7.180703e-02       7.180703e-02 
       4.000000e-01      -7.180703e-02       7.180703e-02 
       4.000000e-01      -7.180703e-02      -7.180703e-02 
       4.000000e-01       7.180703e-02      -7.180703e-02 
       4.000000e-01       7.180703e-02       7.180703e-02 
       4.000000e-01      -7.180703e-02       7.180703e-02 
       5.000000e-01      -7.180703e-02      -7.180703e-02 
       5.000000e-01       7.180703e-02      -7.180703e-02 
       5.000000e-01       7.180703e-02       7.180703e-02 
       5.000000e-01      -7.180703e-02       7.180703e-02 
       5.000000e-01      -7.180703e-02      -7.180703e-02 
       5.000000e-01       7.180703e-02      -7.180703e-02 
       5.000000e-01       7.180703e-02       7.180703e-02 
       5.000000e-01      -7.180703e-02       7.180703e-02 
       6.000000e-01      -7.180703e-02      -7.180703e-02 
       6.000000e-01       7.180703e-02      -7.180703e-02 
       6.000000e-01       7.180703e-02       7.180703e-02 
       6.000000e-01      -7.180703e-02       7.180703e-02 
       6.000000e-01      -7.180703e-02      -7.180703e-02 
       6.000000e-01       7.180703e-02      -7.180703e-02 
       6.000000e-01       7.180703e-02       7.180703e-02 
       6.000000e-01      -7.180703e-02       7.180703e-02 
       7.000000e-01      -7.180703e-02      -7.180703e-02 
       7.000000e-01       7.180703e-02      -7.180703e-02 
       7.000000e-01       7.180703e-02       7.180703e-02 
       7.000000e-01      -7.180703e-02       7.180703e-02 
       7.000000e-01      -7.180703e-02      -7.180703e-02 
       7.000000e-01       7.180703e-02      -7.180703e-02 
       7.000000e-01       7.180703e-02       7.180703e-02 
       7.000000e-01      -7.180703e-02       7.180703e-02 
       8.000000e-01      -7.180703e-02      -7.180703e-02 
       8.000000e-01       7.180703e-02      -7.180703e-02 
       8.000000e-01       7.180703e-02       7.180703e-02 
       8.000000e-01      -7.180703e-02       7.180703e-02 
       8.000000e-01      -7.180703e-02      -7.180703e-02 
       8.000000e-01       7.180703e-02      -7.180703e-02 
       8.000000e-01       7.180703e-02       7.180703e-02 
       8.000000e-01      -7.180703e-02       7.180703e-02 
       9.000000e-01      -7.180703e-02      -7.180703e-02 
       9.000000e-01       7.180703e-02      -7.180703e-02 
       9.000000e-01       7.180703e-02       7.180703e-02 
       9.000000e-01      -7.180703e-02       7.180703e-02 
       9.000000e-01      -7.180703e-02      -7.180703e-02 
       9.000000e-01       7.180703e-02      -7.180703e-02 
       9.000000e-01       7.180703e-02       7.180703e-02 
       9.000000e-01      -7.180703e-02       7.180703e-02 
       1.000000e+00      -7.180703e-02      -7.180703e-02 
       1.000000e+00       7.180703e-02      -7.180703e-02 
       1.000000e+00       7.180703e-02       7.180703e-02 
       1.000000e+00      -7.180703e-02       7.180703e-02 
       1.000000e+00      -7.180703e-02      -7.180703e-02 
       1.000000e+00       7.180703e-02      -7.180703e-02 
       1.000000e+00       7.180703e-02       7.180703e-02 
       1.000000e+00      -7.180703e-02       7.180703e-02 
       1.100000e+00      -7.180703e-02      -7.180703e-02 
       1.100000e+00       7.180703e-02      -7.180703e-02 
       1.100000e+00       7.180703e-02       7.180704e-02 
       1.100000e+00      -7.180703e-02       7.180704e-02 
       1.100000e+00      -7.180703e-02      -7.180703e-02 
       1.100000e+00       7.180703e-02      -7.180703e-02 
       1.100000e+00       7.180703e-02       7.180704e-02 
       1.100000e+00      -7.180703e-02       7.180704e-02 
       1.200000e+00      -7.180703e-02      -7.180703e-02 
       1.200000e+00       7.180703e-02      -7.180703e-02 
       1.200000e+00       7.180703e-02       7.180704e-02 
       1.200000e+00      -7.180703e-02       7.180704e-02 
       1.200000e+00      -7.180703e-02      -7.180703e-02 
       1.200000e+00       7.180703e-02      -7.180703e-02 
       1.200000e+00       7.180703e-02       7.180704e-02 
       1.200000e+00      -7.180703e-02       7.180704e-02 
       1.300000e+00      -7.180703e-02      -7.180703e-02 
       1.300000e+00       7.180703e-02      -7.180703e-02 
       1.300000e+00       7.180703e-02       7.180704e-02 
       1.300000e+00      -7.180703e-02       7.180704e-02 
       1.300000e+00      -7.180703e-02      -7.180703e-02 
       1.300000e+00       7.180703e-02      -7.180703e-02 
       1.300000e+00       7.180703e-02       7.180704e-02 
       1.300000e+00      -7.180703e-02       7.180704e-02 
       1.400000e+00      -7.180703e-02      -7.180703e-02 
       1.400000e+00       7.180703e-02      -7.180703e-02 
       1.400000e+00       7.180703e-02       7.180704e-02 
       1.400000e+00      -7.180703e-02       7.180704e-02 
       1.400000e+00      -7.180703e-02      -7.180703e-02 
       1.400000e+00       7.180703e-02      -7.180703e-02 
       1.400000e+00       7.180703e-02       7.180704e-02 
       1.400000e+00      -7.180703e-02       7.180704e-02 
       1.500000e+00      -7.180703e-02      -7.180703e-02 
       1.500000e+00       7.180703e-02      -7.180703e-02 
       1.500000e+00       7.180703e-02       7.180704e-02 
       1.500000e+00      -7.180703e-02       7.180704e-02 
       1.500000e+00      -7.180703e-02      -7.180703e-02 
       1.500000e+00       7.180703e-02      -7.180703e-02 
       1.500000e+00       7.180703e-02       7.180704e-02 
       1.500000e+00      -7.180703e-02       7.180704e-02 
       1.600000e+00      -7.180703e-02      -7.180703e-02 
       1.600000e+00       7.180703e-02      -7.180703e-02 
       1.600000e+00       7.180703e-02       7.180704e-02 
       1.600000e+00      -7.180703e-02       7.180704e-02 
       1.600000e+00      -7.180703e-02      -7.180703e-02 
       1.600000e+00       7.180703e-02      -7.180703e-02 
       1.600000e+00       7.180703e-02       7.180704e-02 
       1.600000e+00      -7.180703e-02       7.180704e-02 
       1.700000e+00      -7.180703e-02      -7.180703e-02 
       1.700000e+00       7.180703e-02      -7.180703e-02 
       1.700000e+00       7.180703e-02       7.180704e-02 
       1.700000e+00      -7.180703e-02       7.180704e-02 
       1.700000e+00      -7.180703e-02      -7.180703e-02 
       1.700000e+00       7.180703e-02      -7.180703e-02 
       1.700000e+00       7.180703e-02       7.180704e-02 
       1.700000e+00      -7.180703e-02       7.180704e-02 
       1.800000e+00      -7.180703e-02      -7.180703e-02 
       1.800000e+00       7.180703e-02      -7.180703e-02 
       1.800000e+00       7.180703e-02       7.180704e-02 
       1.800000e+00      -7.180703e-02       7.180704e-02 
       1.800000e+00      -7.180703e-02      -7.180703e-02 
       1.800000e+00       7.180703e-02      -7.180703e-02 
       1.800000e+00       7.180703e-02       7.180704e-02 
       1.800000e+00      -7.180703e-02       7.180704e-02 
       1.900000e+00      -7.180703e-02      -7.180703e-02 
       1.900000e+00       7.180703e-02      -7.180703e-02 
       1.900000e+00       7.180703e-02       7.180704e-02 
       1.900000e+00      -7.180703e-02       7.180704e-02 
       1.900000e+00      -7.180703e-02      -7.180703e-02 
       1.900000e+00       7.180703e-02      -7.180703e-02 
       1.900000e+00       7.180703e-02       7.180704e-02 
       1.900000e+00      -7.180703e-02       7.180704e-02 
       2.000000e+00      -7.180703e-02      -7.180703e-02 
       2.000000e+00       7.180703e-02      -7.180703e-02 
       2.000000e+00       7.180703e-02       7.180704e-02 
       2.000000e+00      -7.180703e-02       7.180704e-02 
       2.000000e+00      -7.180703e-02      -7.180703e-02 
       2.000000e+00       7.180703e-02      -7.180703e-02 
       2.000000e+00       7.180703e-02       7.180704e-02 
       2.000000e+00      -7.180703e-02       7.180704e-02 
       2.100000e+00      -7.180703e-02      -7.180703e-02 
[...]
POINT_DATA       800 
VECTORS Displacements float
      -1.63100721e-26       0.00000000e+00       0.00000000e+00 
      -3.41538044e-27       0.00000000e+00       0.00000000e+00 
       1.63100721e-26       0.00000000e+00       0.00000000e+00 
       3.41538044e-27       0.00000000e+00       0.00000000e+00 
       2.77429885e-11       5.09176035e-14       1.93287053e-11 
       2.75250239e-11       5.09176035e-14       1.92782734e-11 
      -2.77430440e-11       1.01349484e-13       1.92782734e-11 
      -2.75250794e-11       1.01349484e-13       1.93287053e-11 
       2.77429885e-11       5.09176035e-14       1.93287053e-11 
       2.75250239e-11       5.09176035e-14       1.92782734e-11 
      -2.77430440e-11       1.01349484e-13       1.92782734e-11 
      -2.75250794e-11       1.01349484e-13       1.93287053e-11 
       5.49528756e-11       2.52145527e-13       7.67714226e-11 
       5.45211654e-11       2.52145527e-13       7.66705449e-11 
      -5.49529866e-11       3.53009288e-13       7.66705449e-11 
      -5.45212764e-11       3.53009288e-13       7.67714226e-11 
       5.49528756e-11       2.52145527e-13       7.67714226e-11 
       5.45211654e-11       2.52145527e-13       7.66705449e-11 
      -5.49529866e-11       3.53009288e-13       7.66705449e-11 
      -5.45212764e-11       3.53009288e-13       7.67714226e-11 
       8.16297030e-11       6.00769434e-13       1.71588688e-10 
       8.09883827e-11       6.00769434e-13       1.71437420e-10 
      -8.16299250e-11       7.52037321e-13       1.71437420e-10 
      -8.09886047e-11       7.52037321e-13       1.71588688e-10 
       8.16297030e-11       6.00769434e-13       1.71588688e-10 
       8.09883827e-11       6.00769434e-13       1.71437420e-10 
      -8.16299250e-11       7.52037321e-13       1.71437420e-10 
      -8.09886047e-11       7.52037321e-13       1.71588688e-10 
       1.07773512e-10       1.09386111e-12       3.03041078e-10 
       1.06926801e-10       1.09386111e-12       3.02839379e-10 
      -1.07773734e-10       1.29556088e-12       3.02839379e-10 
      -1.06927023e-10       1.29556088e-12       3.03041078e-10 
       1.07773512e-10       1.09386111e-12       3.03041078e-10 
       1.06926801e-10       1.09386111e-12       3.02839379e-10 
      -1.07773734e-10       1.29556088e-12       3.02839379e-10 
      -1.06927023e-10       1.29556088e-12       3.03041078e-10 
       1.33384193e-10       1.72852010e-12       4.70389158e-10 
       1.32336142e-10       1.72852010e-12       4.70137027e-10 
      -1.33384526e-10       1.98065175e-12       4.70137027e-10 
      -1.32336586e-10       1.98065175e-12       4.70389158e-10 
       1.33384193e-10       1.72852010e-12       4.70389158e-10 
       1.32336142e-10       1.72852010e-12       4.70137027e-10 
      -1.33384526e-10       1.98065175e-12       4.70137027e-10 
      -1.32336586e-10       1.98065175e-12       4.70389158e-10 
       1.58461799e-10       2.50183207e-12       6.72893435e-10 
       1.57216795e-10       2.50183207e-12       6.72590858e-10 
      -1.58462243e-10       2.80439560e-12       6.72590858e-10 
      -1.57217239e-10       2.80439560e-12       6.72893435e-10 
       1.58461799e-10       2.50183207e-12       6.72893435e-10 
       1.57216795e-10       2.50183207e-12       6.72590858e-10 
      -1.58462243e-10       2.80439560e-12       6.72590858e-10 
      -1.57217239e-10       2.80439560e-12       6.72893435e-10 
       1.83006388e-10       3.41085493e-12       9.09814488e-10 
       1.81568538e-10       3.41085493e-12       9.09461492e-10 
      -1.83006832e-10       3.76385034e-12       9.09461492e-10 
      -1.81568982e-10       3.76385034e-12       9.09814488e-10 
       1.83006388e-10       3.41085493e-12       9.09814488e-10 
       1.81568538e-10       3.41085493e-12       9.09461492e-10 
      -1.83006832e-10       3.76385034e-12       9.09461492e-10 
      -1.81568982e-10       3.76385034e-12       9.09814488e-10 
       2.07017847e-10       4.45272985e-12       1.18041285e-09 
       2.05391371e-10       4.45272985e-12       1.18000945e-09 
      -2.07018291e-10       4.85612939e-12       1.18000945e-09 
      -2.05391815e-10       4.85612939e-12       1.18041285e-09 
       2.07017847e-10       4.45272985e-12       1.18041285e-09 
       2.05391371e-10       4.45272985e-12       1.18000945e-09 
      -2.07018291e-10       4.85612939e-12       1.18000945e-09 
      -2.05391815e-10       4.85612939e-12       1.18041285e-09 
       2.30496178e-10       5.62447311e-12       1.48394910e-09 
       2.28685293e-10       5.62447311e-12       1.48349527e-09 
      -2.30496844e-10       6.07830453e-12       1.48349527e-09 
      -2.28685959e-10       6.07830453e-12       1.48394910e-09 
       2.30496178e-10       5.62447311e-12       1.48394910e-09 
       2.28685293e-10       5.62447311e-12       1.48349527e-09 
      -2.30496844e-10       6.07830453e-12       1.48349527e-09 
      -2.28685959e-10       6.07830453e-12       1.48394910e-09 
       2.53441490e-10       6.92321200e-12       1.81968379e-09 
       2.51450416e-10       6.92321200e-12       1.81917953e-09 
      -2.53442267e-10       7.42747530e-12       1.81917952e-09 
      -2.51451082e-10       7.42747530e-12       1.81968379e-09 
       2.53441712e-10       6.92321200e-12       1.81968379e-09 
       2.51450416e-10       6.92321200e-12       1.81917953e-09 
      -2.53442267e-10       7.42747530e-12       1.81917953e-09 
      -2.51451082e-10       7.42747530e-12       1.81968379e-09 
       2.75881984e-10       8.34871061e-12       2.18688778e-09 
       2.73714384e-10       8.34871061e-12       2.18633839e-09 
      -2.75882872e-10       8.89810448e-12       2.18633839e-09 
      -2.73715273e-10       8.89810448e-12       2.18688778e-09 
       2.75881984e-10       8.34871061e-12       2.18688778e-09 
       2.73714384e-10       8.34871061e-12       2.18633839e-09 
      -2.75882872e-10       8.89810448e-12       2.18633839e-09 
      -2.73715273e-10       8.89810448e-12       2.18688778e-09 
       2.97845526e-10       9.89568150e-12       2.58488911e-09 
       2.95505398e-10       9.89568150e-12       2.58429461e-09 
      -2.97845970e-10       1.04901782e-11       2.58429461e-09 
      -2.95506064e-10       1.04901782e-11       2.58488911e-09 
       2.97845526e-10       9.89568150e-12       2.58488911e-09 
       2.95505398e-10       9.89568150e-12       2.58429461e-09 
      -2.97845970e-10       1.04901782e-11       2.58429461e-09 
      -2.95506064e-10       1.04901782e-11       2.58488911e-09 
       3.19331894e-10       1.15614740e-11       3.01302622e-09 
       3.16823012e-10       1.15614740e-11       3.01238659e-09 
      -3.19332560e-10       1.22011012e-11       3.01238659e-09 
      -3.16823678e-10       1.22011012e-11       3.01302622e-09 
       3.19331894e-10       1.15614740e-11       3.01302622e-09 
       3.16823012e-10       1.15614740e-11       3.01238659e-09 
      -3.19332560e-10       1.22011012e-11       3.01238659e-09 
      -3.16823678e-10       1.22011012e-11       3.01302622e-09 
       3.40341311e-10       1.33435207e-11       3.47063744e-09 
       3.37667450e-10       1.33435207e-11       3.46995271e-09 
      -3.40341977e-10       1.40282508e-11       3.46995271e-09 
      -3.37668116e-10       1.40282508e-11       3.47063744e-09 
       3.40341311e-10       1.33435207e-11       3.47063744e-09 
       3.37667450e-10       1.33435207e-11       3.46995271e-09 
      -3.40341977e-10       1.40282508e-11       3.46995271e-09 
      -3.37668116e-10       1.40282508e-11       3.47063744e-09 
       3.60873775e-10       1.52391988e-11       3.95706122e-09 
       3.58038710e-10       1.52391988e-11       3.95633136e-09 
      -3.60874663e-10       1.59690594e-11       3.95633136e-09 
      -3.58039376e-10       1.59690594e-11       3.95706122e-09 
       3.60873775e-10       1.52391988e-11       3.95706122e-09 
       3.58038710e-10       1.52391988e-11       3.95633136e-09 
      -3.60874663e-10       1.59690594e-11       3.95633136e-09 
      -3.58039376e-10       1.59690594e-11       3.95706122e-09 
       3.80929288e-10       1.72458714e-11       4.47163594e-09 
       3.77936571e-10       1.72458714e-11       4.47086095e-09 
      -3.80930398e-10       1.80208626e-11       4.47086095e-09 
      -3.77937681e-10       1.80208626e-11       4.47163594e-09 
       3.80929288e-10       1.72458714e-11       4.47163594e-09 
       3.77936571e-10       1.72458714e-11       4.47086095e-09 
      -3.80930398e-10       1.80208626e-11       4.47086095e-09 
      -3.77937681e-10       1.80208626e-11       4.47163594e-09 
       4.00507849e-10       1.93609850e-11       5.01369993e-09 
       3.97361477e-10       1.93609850e-11       5.01287983e-09 
      -4.00508737e-10       2.01810790e-11       5.01287983e-09 
      -3.97362365e-10       2.01810790e-11       5.01369993e-09 
       4.00507849e-10       1.93609850e-11       5.01369993e-09 
       3.97361477e-10       1.93609850e-11       5.01287983e-09 
      -4.00508737e-10       2.01810790e-11       5.01287983e-09 
      -3.97362365e-10       2.01810790e-11       5.01369993e-09 
       4.19609458e-10       2.15818891e-11       5.58259164e-09 
       4.16312984e-10       2.15818891e-11       5.58172641e-09 
      -4.19610791e-10       2.24471136e-11       5.58172641e-09 
      -4.16314094e-10       2.24471136e-11       5.58259164e-09 
       4.19609458e-10       2.15818891e-11       5.58259164e-09 
       4.16312984e-10       2.15818891e-11       5.58172641e-09 
      -4.19610791e-10       2.24471136e-11       5.58172641e-09 
      -4.16314094e-10       2.24471136e-11       5.58259164e-09 
       4.38234338e-10       2.39060022e-11       6.17764941e-09 
       4.34791314e-10       2.39060022e-11       6.17673909e-09 
      -4.38235226e-10       2.48163295e-11       6.17673908e-09 
      -4.34792202e-10       2.48163295e-11       6.17764941e-09 
       4.38234338e-10       2.39060022e-11       6.17764941e-09 
       4.34791314e-10       2.39060022e-11       6.17673909e-09 
      -4.38235226e-10       2.48163295e-11       6.17673908e-09 
      -4.34792202e-10       2.48163295e-11       6.17764941e-09 
       4.56382043e-10       2.63306738e-11       6.79821169e-09 
       4.52796467e-10       2.63306738e-11       6.79725623e-09 
      -4.56383153e-10       2.72861317e-11       6.79725623e-09 
      -4.52797799e-10       2.72861317e-11       6.79821169e-09 
       4.56382043e-10       2.63306738e-11       6.79821167e-09 
       4.52796467e-10       2.63306738e-11       6.79725623e-09 
      -4.56383153e-10       2.72861039e-11       6.79725624e-09 
      -4.52797577e-10       2.72861039e-11       6.79821169e-09 
       4.74080775e-10       2.88560148e-11       7.44362715e-09 
       4.70356198e-10       2.88560148e-11       7.44263187e-09 
      -4.74082107e-10       2.98512742e-11       7.44263187e-09 
      -4.70357531e-10       2.98512742e-11       7.44362715e-09 
       4.74080775e-10       2.88560148e-11       7.44362715e-09 
       4.70356198e-10       2.88560148e-11       7.44263187e-09 
      -4.74082107e-10       2.98512742e-11       7.44263187e-09 
      -4.70357531e-10       2.98512742e-11       7.44362715e-09 
       4.91358509e-10       3.14770571e-11       8.11330167e-09 
       4.87498042e-10       3.14770571e-11       8.11226659e-09 
      -4.91360286e-10       3.25121180e-11       8.11226659e-09 
      -4.87499818e-10       3.25121180e-11       8.11330167e-09 
       4.91358509e-10       3.14770571e-11       8.11330167e-09 
       4.87498042e-10       3.14770571e-11       8.11226659e-09 
      -4.91360286e-10       3.25121180e-11       8.11226659e-09 
      -4.87499818e-10       3.25121180e-11       8.11330167e-09 
       5.08216136e-10       3.41914552e-11       8.80665152e-09 
       5.04223330e-10       3.41914552e-11       8.80557664e-09 
      -5.08217024e-10       3.52663176e-11       8.80557664e-09 
      -5.04224218e-10       3.52663176e-11       8.80665152e-09 
       5.08216136e-10       3.41914552e-11       8.80665152e-09 
       5.04223330e-10       3.41914552e-11       8.80557664e-09 
      -5.08217024e-10       3.52663176e-11       8.80557664e-09 
      -5.04224218e-10       3.52663176e-11       8.80665152e-09 
       5.24652322e-10       3.69969055e-11       9.52309291e-09 
       5.20530286e-10       3.69969055e-11       9.52197821e-09 
      -5.24653654e-10       3.81115972e-11       9.52197821e-09 
      -5.20531618e-10       3.81115972e-11       9.52309291e-09 
       5.24652322e-10       3.69969055e-11       9.52309291e-09 
       5.20530286e-10       3.69969055e-11       9.52197821e-09 
      -5.24653654e-10       3.81115972e-11       9.52197821e-09 
      -5.20531618e-10       3.81115972e-11       9.52309291e-09 
       5.40667955e-10       3.98911459e-11       1.02620421e-08 
       5.36419797e-10       3.98911459e-11       1.02608876e-08 
      -5.40669287e-10       4.10456391e-11       1.02608876e-08 
      -5.36421130e-10       4.10456391e-11       1.02620421e-08 
       5.40667955e-10       3.98911459e-11       1.02620421e-08 
       5.36419797e-10       3.98911459e-11       1.02608876e-08 
      -5.40669287e-10       4.10456391e-11       1.02608876e-08 
      -5.36421130e-10       4.10456391e-11       1.02620421e-08 
       5.56262147e-10       4.28718450e-11       1.10229152e-08 
       5.51891866e-10       4.28718450e-11       1.10217209e-08 
      -5.56263924e-10       4.40661396e-11       1.10217209e-08 
      -5.51893642e-10       4.40661396e-11       1.10229152e-08 
       5.56262147e-10       4.28718450e-11       1.10229152e-08 
       5.51891866e-10       4.28718450e-11       1.10217209e-08 
      -5.56263924e-10       4.40661396e-11       1.10217209e-08 
      -5.51893642e-10       4.40661396e-11       1.10229152e-08 
       5.71435788e-10       4.59366850e-11       1.18051286e-08 
       5.66946490e-10       4.59366850e-11       1.18038944e-08 
      -5.71438008e-10       4.71708089e-11       1.18038944e-08 
      -5.66948266e-10       4.71708089e-11       1.18051286e-08 
       5.71435788e-10       4.59366850e-11       1.18051286e-08 
       5.66946490e-10       4.59366850e-11       1.18038944e-08 
      -5.71438008e-10       4.71708089e-11       1.18038944e-08 
      -5.66948266e-10       4.71708089e-11       1.18051286e-08 
       5.86189319e-10       4.90833901e-11       1.26080984e-08 
       5.81583670e-10       4.90833901e-11       1.26068244e-08 
      -5.86190207e-10       5.03573155e-11       1.26068244e-08 
      -5.81585002e-10       5.03573155e-11       1.26080984e-08 
       5.86189319e-10       4.90833901e-11       1.26080984e-08 
       5.81583670e-10       4.90833901e-11       1.26068244e-08 
      -5.86190207e-10       5.03573155e-11       1.26068244e-08 
      -5.81585002e-10       5.03573155e-11       1.26080984e-08 
       6.00520966e-10       5.23096566e-11       1.34312408e-08 
       5.95803407e-10       5.23096566e-11       1.34299271e-08 
      -6.00522743e-10       5.36233835e-11       1.34299271e-08 
      -5.95804739e-10       5.36233835e-11       1.34312408e-08 
       6.00520966e-10       5.23096566e-11       1.34312408e-08 
       5.95803407e-10       5.23096566e-11       1.34299271e-08 
      -6.00522743e-10       5.36233835e-11       1.34299271e-08 
      -5.95804739e-10       5.36233835e-11       1.34312408e-08 
       6.14432061e-10       5.56131668e-11       1.42739722e-08 
       6.09604811e-10       5.56131668e-11       1.42726186e-08 
      -6.14433837e-10       5.69667230e-11       1.42726186e-08 
      -6.09606587e-10       5.69667230e-11       1.42739722e-08 
       6.14432061e-10       5.56131530e-11       1.42739722e-08 
       6.09604811e-10       5.56131530e-11       1.42726186e-08 
      -6.14433837e-10       5.69667369e-11       1.42726186e-08 
      -6.09606587e-10       5.69667369e-11       1.42739722e-08 
       6.27950580e-10       5.89943233e-11       1.51357190e-08 
       6.23017193e-10       5.89943233e-11       1.51343309e-08 
      -6.27952357e-10       6.03824074e-11       1.51343309e-08 
      -6.23018970e-10       6.03824074e-11       1.51357190e-08 
       6.27950580e-10       5.89943233e-11       1.51357190e-08 
       6.23017193e-10       5.89943233e-11       1.51343309e-08 
      -6.27952357e-10       6.03824074e-11       1.51343309e-08 
      -6.23018970e-10       6.03824074e-11       1.51357190e-08 
       6.41104059e-10       6.24484631e-11       1.60159649e-08 
       6.36067199e-10       6.24484631e-11       1.60145423e-08 
      -6.41106279e-10       6.38710473e-11       1.60145423e-08 
      -6.36069419e-10       6.38710473e-11       1.60159649e-08 
       6.41104059e-10       6.24484631e-11       1.60159649e-08 
       6.36067199e-10       6.24484631e-11       1.60145423e-08 
      -6.41106279e-10       6.38710473e-11       1.60145423e-08 
      -6.36069419e-10       6.38710473e-11       1.60159649e-08 
       6.53893828e-10       6.59735461e-11       1.69142041e-08 
       6.48756160e-10       6.59735461e-11       1.69127471e-08 
      -6.53895160e-10       6.74306305e-11       1.69127471e-08 
      -6.48757492e-10       6.74306305e-11       1.69142041e-08 
       6.53893828e-10       6.59735461e-11       1.69142041e-08 
       6.48756160e-10       6.59735461e-11       1.69127471e-08 
      -6.53895160e-10       6.74306305e-11       1.69127471e-08 
      -6.48757492e-10       6.74306305e-11       1.69142041e-08 
       6.66317668e-10       6.95676017e-11       1.78299306e-08 
       6.61082744e-10       6.95676017e-11       1.78284390e-08 
      -6.66319444e-10       7.10591863e-11       1.78284390e-08 
      -6.61084520e-10       7.10591863e-11       1.78299306e-08 
       6.66317668e-10       6.95676017e-11       1.78299306e-08 
       6.61082744e-10       6.95676017e-11       1.78284390e-08 
      -6.66319444e-10       7.10591863e-11       1.78284390e-08 
      -6.61084520e-10       7.10591863e-11       1.78299306e-08 
       6.78377354e-10       7.32286176e-11       1.87626385e-08 
       6.73047396e-10       7.32286176e-11       1.87611124e-08 
      -6.78379131e-10       7.47547024e-11       1.87611124e-08 
      -6.73049616e-10       7.47547024e-11       1.87626385e-08 
       6.78377354e-10       7.32286176e-11       1.87626385e-08 
       6.73047396e-10       7.32286176e-11       1.87611124e-08 
      -6.78379131e-10       7.47547024e-11       1.87611124e-08 
      -6.73049616e-10       7.47547024e-11       1.87626385e-08 
       6.90071555e-10       7.69546232e-11       1.97118218e-08 
       6.84650114e-10       7.69546232e-11       1.97102612e-08 
      -6.90074220e-10       7.85152082e-11       1.97102612e-08 
      -6.84652335e-10       7.85152082e-11       1.97118218e-08 
       6.90071555e-10       7.69546232e-11       1.97118218e-08 
       6.84650114e-10       7.69546232e-11       1.97102612e-08 
      -6.90074220e-10       7.85152082e-11       1.97102612e-08 
      -6.84652335e-10       7.85152082e-11       1.97118218e-08 
       7.01401603e-10       8.07435924e-11       2.06769745e-08 
       6.95891345e-10       8.07435924e-11       2.06753795e-08 
      -7.01404268e-10       8.23386775e-11       2.06753795e-08 
      -6.95893565e-10       8.23386775e-11       2.06769745e-08 
       7.01401603e-10       8.07435924e-11       2.06769745e-08 
       6.95891345e-10       8.07435924e-11       2.06753795e-08 
      -7.01404268e-10       8.23386775e-11       2.06753795e-08 
      -6.95893565e-10       8.23386775e-11       2.06769745e-08 
       7.12367498e-10       8.45935683e-11       2.16575909e-08 
       7.06770642e-10       8.45935683e-11       2.16559613e-08 
      -7.12368831e-10       8.62231536e-11       2.16559613e-08 
      -7.06772418e-10       8.62231536e-11       2.16575909e-08 
       7.12367498e-10       8.45935683e-11       2.16575909e-08 
       7.06770642e-10       8.45935683e-11       2.16559613e-08 