# vtk DataFile Version 2.0
./output/onsasExample_BladeCantileverBeamNoPitch_windVel3DDynamic 3D/onsasExample_BladeCantileverBeamNoPitch_windVel3DDynamic 3D_0317.vtk
ASCII
DATASET UNSTRUCTURED_GRID

POINTS 800 float
       6.107456e-24      -7.180703e-02      -7.180703e-02 
       4.415713e-23       7.180703e-02      -7.180703e-02 
      -6.107456e-24       7.180703e-02       7.180703e-02 
      -4.415713e-23      -7.180703e-02       7.180703e-02 
       2.000000e-01      -7.180702e-02      -7.180706e-02 
       2.000000e-01       7.180705e-02      -7.180706e-02 
       2.000000e-01       7.180705e-02       7.180701e-02 
       2.000000e-01      -7.180702e-02       7.180701e-02 
       2.000000e-01      -7.180702e-02      -7.180706e-02 
       2.000000e-01       7.180705e-02      -7.180706e-02 
       2.000000e-01       7.180705e-02       7.180701e-02 
       2.000000e-01      -7.180702e-02       7.180701e-02 
       4.000000e-01      -7.180698e-02      -7.180714e-02 
       3.999999e-01       7.180709e-02      -7.180714e-02 
       4.000000e-01       7.180709e-02       7.180693e-02 
       4.000001e-01      -7.180698e-02       7.180693e-02 
       4.000000e-01      -7.180698e-02      -7.180714e-02 
       3.999999e-01       7.180709e-02      -7.180714e-02 
       4.000000e-01       7.180709e-02       7.180693e-02 
       4.000001e-01      -7.180698e-02       7.180693e-02 
       6.000000e-01      -7.180691e-02      -7.180727e-02 
       5.999999e-01       7.180715e-02      -7.180727e-02 
       6.000000e-01       7.180715e-02       7.180680e-02 
       6.000001e-01      -7.180691e-02       7.180680e-02 
       6.000000e-01      -7.180691e-02      -7.180727e-02 
       5.999999e-01       7.180715e-02      -7.180727e-02 
       6.000000e-01       7.180715e-02       7.180680e-02 
       6.000001e-01      -7.180691e-02       7.180680e-02 
       8.000000e-01      -7.180682e-02      -7.180744e-02 
       7.999999e-01       7.180725e-02      -7.180744e-02 
       8.000000e-01       7.180725e-02       7.180662e-02 
       8.000001e-01      -7.180682e-02       7.180662e-02 
       8.000000e-01      -7.180682e-02      -7.180744e-02 
       7.999999e-01       7.180725e-02      -7.180744e-02 
       8.000000e-01       7.180725e-02       7.180662e-02 
       8.000001e-01      -7.180682e-02       7.180662e-02 
       1.000000e+00      -7.180670e-02      -7.180767e-02 
       9.999999e-01       7.180737e-02      -7.180767e-02 
       1.000000e+00       7.180737e-02       7.180639e-02 
       1.000000e+00      -7.180670e-02       7.180639e-02 
       1.000000e+00      -7.180670e-02      -7.180767e-02 
       9.999999e-01       7.180737e-02      -7.180767e-02 
       1.000000e+00       7.180737e-02       7.180639e-02 
       1.000000e+00      -7.180670e-02       7.180639e-02 
       1.200000e+00      -7.180656e-02      -7.180795e-02 
       1.200000e+00       7.180751e-02      -7.180795e-02 
       1.200000e+00       7.180751e-02       7.180612e-02 
       1.200000e+00      -7.180656e-02       7.180612e-02 
       1.200000e+00      -7.180656e-02      -7.180795e-02 
       1.200000e+00       7.180751e-02      -7.180795e-02 
       1.200000e+00       7.180751e-02       7.180612e-02 
       1.200000e+00      -7.180656e-02       7.180612e-02 
       1.400000e+00      -7.180639e-02      -7.180827e-02 
       1.400000e+00       7.180768e-02      -7.180827e-02 
       1.400000e+00       7.180768e-02       7.180580e-02 
       1.400000e+00      -7.180639e-02       7.180580e-02 
       1.400000e+00      -7.180639e-02      -7.180827e-02 
       1.400000e+00       7.180768e-02      -7.180827e-02 
       1.400000e+00       7.180768e-02       7.180580e-02 
       1.400000e+00      -7.180639e-02       7.180580e-02 
       1.600000e+00      -7.180620e-02      -7.180864e-02 
       1.600000e+00       7.180787e-02      -7.180864e-02 
       1.600000e+00       7.180787e-02       7.180543e-02 
       1.600000e+00      -7.180620e-02       7.180543e-02 
       1.600000e+00      -7.180620e-02      -7.180864e-02 
       1.600000e+00       7.180787e-02      -7.180864e-02 
       1.600000e+00       7.180787e-02       7.180543e-02 
       1.600000e+00      -7.180620e-02       7.180543e-02 
       1.800000e+00      -7.180598e-02      -7.180905e-02 
       1.800000e+00       7.180809e-02      -7.180905e-02 
       1.800000e+00       7.180809e-02       7.180502e-02 
       1.800000e+00      -7.180598e-02       7.180502e-02 
       1.800000e+00      -7.180598e-02      -7.180905e-02 
       1.800000e+00       7.180809e-02      -7.180905e-02 
       1.800000e+00       7.180809e-02       7.180502e-02 
       1.800000e+00      -7.180598e-02       7.180502e-02 
       2.000000e+00      -7.180574e-02      -7.180950e-02 
       2.000000e+00       7.180832e-02      -7.180950e-02 
       2.000000e+00       7.180832e-02       7.180456e-02 
       2.000000e+00      -7.180574e-02       7.180456e-02 
       2.000000e+00      -7.180574e-02      -7.180950e-02 
       2.000000e+00       7.180832e-02      -7.180950e-02 
       2.000000e+00       7.180832e-02       7.180456e-02 
       2.000000e+00      -7.180574e-02       7.180456e-02 
       2.200000e+00      -7.180548e-02      -7.181000e-02 
       2.200000e+00       7.180859e-02      -7.181000e-02 
       2.200000e+00       7.180859e-02       7.180406e-02 
       2.200000e+00      -7.180548e-02       7.180406e-02 
       2.200000e+00      -7.180548e-02      -7.181000e-02 
       2.200000e+00       7.180859e-02      -7.181000e-02 
       2.200000e+00       7.180859e-02       7.180406e-02 
       2.200000e+00      -7.180548e-02       7.180406e-02 
       2.400000e+00      -7.180520e-02      -7.181054e-02 
       2.400000e+00       7.180887e-02      -7.181054e-02 
       2.400000e+00       7.180887e-02       7.180352e-02 
       2.400000e+00      -7.180520e-02       7.180352e-02 
       2.400000e+00      -7.180520e-02      -7.181054e-02 
       2.400000e+00       7.180887e-02      -7.181054e-02 
       2.400000e+00       7.180887e-02       7.180352e-02 
       2.400000e+00      -7.180520e-02       7.180352e-02 
       2.600000e+00      -7.180489e-02      -7.181112e-02 
       2.600000e+00       7.180917e-02      -7.181112e-02 
       2.600000e+00       7.180917e-02       7.180294e-02 
       2.600000e+00      -7.180489e-02       7.180294e-02 
       2.600000e+00      -7.180489e-02      -7.181112e-02 
       2.600000e+00       7.180917e-02      -7.181112e-02 
       2.600000e+00       7.180917e-02       7.180294e-02 
       2.600000e+00      -7.180489e-02       7.180294e-02 
       2.800000e+00      -7.180457e-02      -7.181174e-02 
       2.800000e+00       7.180950e-02      -7.181174e-02 
       2.800000e+00       7.180950e-02       7.180232e-02 
       2.800000e+00      -7.180457e-02       7.180232e-02 
       2.800000e+00      -7.180457e-02      -7.181174e-02 
       2.800000e+00       7.180950e-02      -7.181174e-02 
       2.800000e+00       7.180950e-02       7.180232e-02 
       2.800000e+00      -7.180457e-02       7.180232e-02 
       3.000000e+00      -7.180422e-02      -7.181240e-02 
       3.000000e+00       7.180984e-02      -7.181240e-02 
       3.000000e+00       7.180984e-02       7.180166e-02 
       3.000000e+00      -7.180422e-02       7.180166e-02 
       3.000000e+00      -7.180422e-02      -7.181240e-02 
       3.000000e+00       7.180984e-02      -7.181240e-02 
       3.000000e+00       7.180984e-02       7.180166e-02 
       3.000000e+00      -7.180422e-02       7.180166e-02 
       3.200000e+00      -7.180386e-02      -7.181310e-02 
       3.200000e+00       7.181021e-02      -7.181310e-02 
       3.200000e+00       7.181021e-02       7.180096e-02 
       3.200000e+00      -7.180386e-02       7.180096e-02 
       3.200000e+00      -7.180386e-02      -7.181310e-02 
       3.200000e+00       7.181021e-02      -7.181310e-02 
       3.200000e+00       7.181021e-02       7.180096e-02 
       3.200000e+00      -7.180386e-02       7.180096e-02 
       3.400000e+00      -7.180347e-02      -7.181384e-02 
       3.400000e+00       7.181059e-02      -7.181384e-02 
       3.400000e+00       7.181059e-02       7.180023e-02 
       3.400000e+00      -7.180347e-02       7.180023e-02 
       3.400000e+00      -7.180347e-02      -7.181384e-02 
       3.400000e+00       7.181059e-02      -7.181384e-02 
       3.400000e+00       7.181059e-02       7.180023e-02 
       3.400000e+00      -7.180347e-02       7.180023e-02 
       3.600000e+00      -7.180307e-02      -7.181461e-02 
       3.600000e+00       7.181100e-02      -7.181461e-02 
       3.600000e+00       7.181100e-02       7.179946e-02 
       3.600000e+00      -7.180307e-02       7.179946e-02 
       3.600000e+00      -7.180307e-02      -7.181461e-02 
       3.600000e+00       7.181100e-02      -7.181461e-02 
       3.600000e+00       7.181100e-02       7.179946e-02 
       3.600000e+00      -7.180307e-02       7.179946e-02 
       3.800000e+00      -7.180265e-02      -7.181542e-02 
       3.800000e+00       7.181142e-02      -7.181542e-02 
       3.800000e+00       7.181142e-02       7.179865e-02 
       3.800000e+00      -7.180265e-02       7.179865e-02 
       3.800000e+00      -7.180265e-02      -7.181542e-02 
       3.800000e+00       7.181142e-02      -7.181542e-02 
       3.800000e+00       7.181142e-02       7.179865e-02 
       3.800000e+00      -7.180265e-02       7.179865e-02 
       4.000000e+00      -7.180221e-02      -7.181626e-02 
       4.000000e+00       7.181186e-02      -7.181626e-02 
       4.000000e+00       7.181186e-02       7.179781e-02 
       4.000000e+00      -7.180221e-02       7.179781e-02 
       4.000000e+00      -7.180221e-02      -7.181626e-02 
       4.000000e+00       7.181186e-02      -7.181626e-02 
       4.000000e+00       7.181186e-02       7.179781e-02 
       4.000000e+00      -7.180221e-02       7.179781e-02 
       4.200000e+00      -7.180175e-02      -7.181714e-02 
[...]
POINT_DATA       800 
VECTORS Displacements float
       6.10745600e-24      -1.38777878e-17       0.00000000e+00 
       4.41571255e-23       1.38777878e-17       0.00000000e+00 
      -6.10745600e-24       1.38777878e-17       0.00000000e+00 
      -4.41571255e-23      -1.38777878e-17       0.00000000e+00 
      -8.98854879e-09       1.37087968e-08      -2.62065648e-08 
      -2.86131858e-08       1.37087954e-08      -2.62065343e-08 
       8.90279533e-09       1.37087701e-08      -2.62065392e-08 
       2.85274324e-08       1.37087714e-08      -2.62065697e-08 
      -8.98854879e-09       1.37087968e-08      -2.62065648e-08 
      -2.86131858e-08       1.37087954e-08      -2.62065343e-08 
       8.90279533e-09       1.37087701e-08      -2.62065392e-08 
       2.85274324e-08       1.37087714e-08      -2.62065697e-08 
      -1.78055502e-08       5.44836379e-08      -1.04156025e-07 
      -5.66761987e-08       5.44836326e-08      -1.04155959e-07 
       1.76338806e-08       5.44835868e-08      -1.04155978e-07 
       5.65045291e-08       5.44835920e-08      -1.04156044e-07 
      -1.78055502e-08       5.44836379e-08      -1.04156025e-07 
      -5.66761987e-08       5.44836326e-08      -1.04155959e-07 
       1.76338806e-08       5.44835868e-08      -1.04155978e-07 
       5.65045291e-08       5.44835920e-08      -1.04156044e-07 
      -2.64510026e-08       1.21797241e-07      -2.32843071e-07 
      -8.41890369e-08       1.21797230e-07      -2.32842965e-07 
       2.61932572e-08       1.21797168e-07      -2.32843007e-07 
       8.39312915e-08       1.21797180e-07      -2.32843113e-07 
      -2.64510026e-08       1.21797241e-07      -2.32843071e-07 
      -8.41890369e-08       1.21797230e-07      -2.32842965e-07 
       2.61932572e-08       1.21797168e-07      -2.32843007e-07 
       8.39312915e-08       1.21797180e-07      -2.32843113e-07 
      -3.49249045e-08       2.15122325e-07      -4.11262393e-07 
      -1.11151699e-07       2.15122305e-07      -4.11262242e-07 
       3.45809268e-08       2.15122231e-07      -4.11262316e-07 
       1.10807721e-07       2.15122252e-07      -4.11262467e-07 
      -3.49249045e-08       2.15122325e-07      -4.11262393e-07 
      -1.11151699e-07       2.15122305e-07      -4.11262242e-07 
       3.45809268e-08       2.15122231e-07      -4.11262316e-07 
       1.10807721e-07       2.15122252e-07      -4.11262467e-07 
      -4.32272542e-08       3.33931606e-07      -6.38408680e-07 
      -1.37564183e-07       3.33931575e-07      -6.38408481e-07 
       4.27968911e-08       3.33931495e-07      -6.38408595e-07 
       1.37133820e-07       3.33931526e-07      -6.38408794e-07 
      -4.32272542e-08       3.33931606e-07      -6.38408680e-07 
      -1.37564183e-07       3.33931575e-07      -6.38408481e-07 
       4.27968911e-08       3.33931495e-07      -6.38408595e-07 
       1.37133820e-07       3.33931526e-07      -6.38408794e-07 
      -5.13580503e-08       4.77697804e-07      -9.13276625e-07 
      -1.63426488e-07       4.77697761e-07      -9.13276373e-07 
       5.08411515e-08       4.77697676e-07      -9.13276533e-07 
       1.62909589e-07       4.77697720e-07      -9.13276784e-07 
      -5.13580503e-08       4.77697804e-07      -9.13276625e-07 
      -1.63426488e-07       4.77697761e-07      -9.13276373e-07 
       5.08411515e-08       4.77697676e-07      -9.13276533e-07 
       1.62909589e-07       4.77697720e-07      -9.13276784e-07 
      -5.93172909e-08       6.45893636e-07      -1.23486092e-06 
      -1.88738612e-07       6.45893578e-07      -1.23486061e-06 
       5.87137097e-08       6.45893494e-07      -1.23486082e-06 
       1.88135030e-07       6.45893552e-07      -1.23486113e-06 
      -5.93172909e-08       6.45893636e-07      -1.23486092e-06 
      -1.88738612e-07       6.45893578e-07      -1.23486061e-06 
       5.87137097e-08       6.45893494e-07      -1.23486082e-06 
       1.88135030e-07       6.45893552e-07      -1.23486113e-06 
      -6.71049749e-08       8.37991820e-07      -1.60215624e-06 
      -2.13500553e-07       8.37991745e-07      -1.60215588e-06 
       6.64145672e-08       8.37991664e-07      -1.60215615e-06 
       2.12810145e-07       8.37991739e-07      -1.60215652e-06 
      -6.71049749e-08       8.37991820e-07      -1.60215624e-06 
      -2.13500553e-07       8.37991745e-07      -1.60215588e-06 
       6.64145672e-08       8.37991664e-07      -1.60215615e-06 
       2.12810145e-07       8.37991739e-07      -1.60215652e-06 
      -7.47211000e-08       1.05346507e-06      -2.01415730e-06 
      -2.37712310e-07       1.05346498e-06      -2.01415687e-06 
       7.39437258e-08       1.05346491e-06      -2.01415721e-06 
       2.36934936e-07       1.05346500e-06      -2.01415764e-06 
      -7.47211000e-08       1.05346507e-06      -2.01415730e-06 
      -2.37712310e-07       1.05346498e-06      -2.01415687e-06 
       7.39437258e-08       1.05346491e-06      -2.01415721e-06 
       2.36934936e-07       1.05346500e-06      -2.01415764e-06 
      -8.21656654e-08       1.29178612e-06      -2.46985877e-06 
      -2.61373882e-07       1.29178600e-06      -2.46985828e-06 
       8.13011862e-08       1.29178594e-06      -2.46985869e-06 
       2.60509403e-07       1.29178605e-06      -2.46985918e-06 
      -8.21656652e-08       1.29178612e-06      -2.46985877e-06 
      -2.61373882e-07       1.29178600e-06      -2.46985828e-06 
       8.13011867e-08       1.29178594e-06      -2.46985869e-06 
       2.60509403e-07       1.29178605e-06      -2.46985918e-06 
      -8.94334335e-08       1.55243679e-06      -2.96827278e-06 
      -2.84499861e-07       1.55243666e-06      -2.96827223e-06 
       8.85104292e-08       1.55243661e-06      -2.96827272e-06 
       2.83576856e-07       1.55243675e-06      -2.96827327e-06 
      -8.94334335e-08       1.55243679e-06      -2.96827278e-06 
      -2.84499861e-07       1.55243666e-06      -2.96827223e-06 
       8.85104292e-08       1.55243661e-06      -2.96827272e-06 
       2.83576856e-07       1.55243675e-06      -2.96827327e-06 
      -9.65486877e-08       1.83493636e-06      -3.50848404e-06 
      -3.07134994e-07       1.83493620e-06      -3.50848343e-06 
       9.55667989e-08       1.83493619e-06      -3.50848400e-06 
       3.06153106e-07       1.83493634e-06      -3.50848460e-06 
      -9.65486877e-08       1.83493636e-06      -3.50848404e-06 
      -3.07134994e-07       1.83493620e-06      -3.50848343e-06 
       9.55667989e-08       1.83493619e-06      -3.50848400e-06 
       3.06153106e-07       1.83493634e-06      -3.50848460e-06 
      -1.03511424e-07       2.13881366e-06      -4.08959609e-06 
      -3.29279281e-07       2.13881348e-06      -4.08959542e-06 
       1.02470298e-07       2.13881349e-06      -4.08959607e-06 
       3.28238155e-07       2.13881367e-06      -4.08959674e-06 
      -1.03511424e-07       2.13881366e-06      -4.08959609e-06 
      -3.29279281e-07       2.13881348e-06      -4.08959542e-06 
       1.02470298e-07       2.13881349e-06      -4.08959607e-06 
       3.28238155e-07       2.13881367e-06      -4.08959674e-06 
      -1.10321638e-07       2.46359752e-06      -4.71071247e-06 
      -3.50932714e-07       2.46359732e-06      -4.71071174e-06 
       1.09220932e-07       2.46359737e-06      -4.71071248e-06 
       3.49832008e-07       2.46359757e-06      -4.71071321e-06 
      -1.10321638e-07       2.46359752e-06      -4.71071247e-06 
      -3.50932714e-07       2.46359732e-06      -4.71071174e-06 
       1.09220932e-07       2.46359737e-06      -4.71071248e-06 
       3.49832008e-07       2.46359757e-06      -4.71071321e-06 
      -1.16979327e-07       2.80881679e-06      -5.37093673e-06 
      -3.72095292e-07       2.80881656e-06      -5.37093594e-06 
       1.15818703e-07       2.80881664e-06      -5.37093677e-06 
       3.70934668e-07       2.80881687e-06      -5.37093756e-06 
      -1.16979327e-07       2.80881679e-06      -5.37093673e-06 
      -3.72095292e-07       2.80881656e-06      -5.37093594e-06 
       1.15818703e-07       2.80881664e-06      -5.37093677e-06 
       3.70934668e-07       2.80881687e-06      -5.37093756e-06 
      -1.23484487e-07       3.17400029e-06      -6.06937242e-06 
      -3.92767011e-07       3.17400004e-06      -6.06937156e-06 
       1.22263616e-07       3.17400015e-06      -6.06937248e-06 
       3.91546140e-07       3.17400040e-06      -6.06937334e-06 
      -1.23484487e-07       3.17400029e-06      -6.06937242e-06 
      -3.92767011e-07       3.17400004e-06      -6.06937156e-06 
       1.22263616e-07       3.17400015e-06      -6.06937248e-06 
       3.91546140e-07       3.17400040e-06      -6.06937334e-06 
      -1.29837113e-07       3.55867685e-06      -6.80512307e-06 
      -4.12947864e-07       3.55867657e-06      -6.80512215e-06 
       1.28555675e-07       3.55867672e-06      -6.80512317e-06 
       4.11666427e-07       3.55867700e-06      -6.80512409e-06 
      -1.29837113e-07       3.55867685e-06      -6.80512307e-06 
      -4.12947864e-07       3.55867657e-06      -6.80512215e-06 
       1.28555675e-07       3.55867672e-06      -6.80512317e-06 
       4.11666427e-07       3.55867700e-06      -6.80512409e-06 
      -1.36037202e-07       3.96237532e-06      -7.57729224e-06 
      -4.32637851e-07       3.96237501e-06      -7.57729125e-06 
       1.34694884e-07       3.96237520e-06      -7.57729237e-06 
       4.31295533e-07       3.96237550e-06      -7.57729336e-06 
      -1.36037202e-07       3.96237532e-06      -7.57729224e-06 
      -4.32637851e-07       3.96237501e-06      -7.57729125e-06 
       1.34694884e-07       3.96237520e-06      -7.57729237e-06 
       4.31295533e-07       3.96237550e-06      -7.57729336e-06 
      -1.42084749e-07       4.38462452e-06      -8.38498346e-06 
      -4.51836966e-07       4.38462419e-06      -8.38498240e-06 
       1.40681246e-07       4.38462441e-06      -8.38498362e-06 
       4.50433463e-07       4.38462474e-06      -8.38498468e-06 
      -1.42084749e-07       4.38462452e-06      -8.38498346e-06 
      -4.51836966e-07       4.38462419e-06      -8.38498240e-06 
       1.40681246e-07       4.38462441e-06      -8.38498362e-06 
       4.50433463e-07       4.38462474e-06      -8.38498468e-06 
      -1.47979753e-07       4.82495329e-06      -9.22730029e-06 
      -4.70545206e-07       4.82495293e-06      -9.22729916e-06 
       1.46514765e-07       4.82495319e-06      -9.22730048e-06 
       4.69080218e-07       4.82495355e-06      -9.22730161e-06 
      -1.47979752e-07       4.82495329e-06      -9.22730029e-06 
      -4.70545206e-07       4.82495293e-06      -9.22729916e-06 
       1.46514764e-07       4.82495319e-06      -9.22730048e-06 
       4.69080218e-07       4.82495355e-06      -9.22730161e-06 
      -1.53721850e-07       5.28289989e-06      -1.01033649e-05 
      -4.88782493e-07       5.28289950e-06      -1.01033637e-05 
       1.52215313e-07       5.28289980e-06      -1.01033651e-05 
       4.87275955e-07       5.28290019e-06      -1.01033663e-05 
      -1.53721850e-07       5.28289989e-06      -1.01033649e-05 
      -4.88782493e-07       5.28289950e-06      -1.01033637e-05 
       1.52215313e-07       5.28289980e-06      -1.01033651e-05 
       4.87275955e-07       5.28290019e-06      -1.01033663e-05 
      -1.59330344e-07       5.75804014e-06      -1.10123721e-05 
      -5.06588300e-07       5.75803972e-06      -1.10123708e-05 
       1.57781831e-07       5.75804007e-06      -1.10123723e-05 
       5.05039788e-07       5.75804049e-06      -1.10123736e-05 
      -1.59330344e-07       5.75804014e-06      -1.10123721e-05 
      -5.06588300e-07       5.75803972e-06      -1.10123708e-05 
       1.57781831e-07       5.75804007e-06      -1.10123723e-05 
       5.05039788e-07       5.75804049e-06      -1.10123736e-05 
      -1.64805226e-07       6.24995921e-06      -1.19535343e-05 
      -5.23962622e-07       6.24995876e-06      -1.19535329e-05 
       1.63214326e-07       6.24995916e-06      -1.19535346e-05 
       5.22371721e-07       6.24995961e-06      -1.19535359e-05 
      -1.64805226e-07       6.24995921e-06      -1.19535343e-05 
      -5.23962622e-07       6.24995876e-06      -1.19535329e-05 
       1.63214326e-07       6.24995916e-06      -1.19535346e-05 
       5.22371721e-07       6.24995961e-06      -1.19535359e-05 
      -1.70146495e-07       6.75824228e-06      -1.29260639e-05 
      -5.40905456e-07       6.75824180e-06      -1.29260626e-05 
       1.68512799e-07       6.75824225e-06      -1.29260643e-05 
       5.39271759e-07       6.75824273e-06      -1.29260657e-05 
      -1.70146495e-07       6.75824228e-06      -1.29260639e-05 
      -5.40905456e-07       6.75824180e-06      -1.29260626e-05 
       1.68512799e-07       6.75824225e-06      -1.29260643e-05 
       5.39271759e-07       6.75824273e-06      -1.29260657e-05 
      -1.75354144e-07       7.28247453e-06      -1.39291736e-05 
      -5.57416794e-07       7.28247402e-06      -1.39291721e-05 
       1.73677257e-07       7.28247452e-06      -1.39291740e-05 
       5.55739907e-07       7.28247502e-06      -1.39291754e-05 
      -1.75354144e-07       7.28247453e-06      -1.39291736e-05 
      -5.57416794e-07       7.28247402e-06      -1.39291721e-05 
       1.73677257e-07       7.28247452e-06      -1.39291740e-05 
       5.55739907e-07       7.28247502e-06      -1.39291754e-05 
      -1.80428168e-07       7.82224112e-06      -1.49620756e-05 
      -5.73496634e-07       7.82224058e-06      -1.49620741e-05 
       1.78707706e-07       7.82224113e-06      -1.49620761e-05 
       5.71776172e-07       7.82224166e-06      -1.49620776e-05 
      -1.80428168e-07       7.82224112e-06      -1.49620756e-05 
      -5.73496634e-07       7.82224058e-06      -1.49620741e-05 
       1.78707706e-07       7.82224113e-06      -1.49620761e-05 
       5.71776172e-07       7.82224166e-06      -1.49620776e-05 
      -1.85368561e-07       8.37712723e-06      -1.60239825e-05 
      -5.89144968e-07       8.37712666e-06      -1.60239809e-05 
       1.83604149e-07       8.37712726e-06      -1.60239830e-05 
       5.87380557e-07       8.37712782e-06      -1.60239846e-05 
      -1.85368561e-07       8.37712723e-06      -1.60239825e-05 
      -5.89144968e-07       8.37712666e-06      -1.60239809e-05 
       1.83604149e-07       8.37712726e-06      -1.60239830e-05 
       5.87380557e-07       8.37712782e-06      -1.60239846e-05 
      -1.90175317e-07       8.94671803e-06      -1.71141067e-05 
      -6.04361793e-07       8.94671743e-06      -1.71141051e-05 
       1.88366593e-07       8.94671808e-06      -1.71141073e-05 
       6.02553069e-07       8.94671868e-06      -1.71141089e-05 
      -1.90175317e-07       8.94671803e-06      -1.71141067e-05 
      -6.04361793e-07       8.94671743e-06      -1.71141051e-05 
       1.88366593e-07       8.94671808e-06      -1.71141073e-05 
       6.02553069e-07       8.94671868e-06      -1.71141089e-05 
      -1.94848435e-07       9.53059870e-06      -1.82316607e-05 
      -6.19147102e-07       9.53059808e-06      -1.82316590e-05 
       1.92995043e-07       9.53059877e-06      -1.82316613e-05 
       6.17293710e-07       9.53059940e-06      -1.82316630e-05 
      -1.94848435e-07       9.53059870e-06      -1.82316607e-05 
      -6.19147102e-07       9.53059808e-06      -1.82316590e-05 
       1.92995043e-07       9.53059877e-06      -1.82316613e-05 
       6.17293710e-07       9.53059940e-06      -1.82316630e-05 
      -1.99387907e-07       1.01283544e-05      -1.93758570e-05 
      -6.33500893e-07       1.01283538e-05      -1.93758552e-05 
       1.97489503e-07       1.01283545e-05      -1.93758576e-05 
       6.31602489e-07       1.01283552e-05      -1.93758594e-05 
      -1.99387906e-07       1.01283544e-05      -1.93758570e-05 
      -6.33500892e-07       1.01283538e-05      -1.93758552e-05 
       1.97489503e-07       1.01283545e-05      -1.93758576e-05 
       6.31602489e-07       1.01283552e-05      -1.93758594e-05 
      -2.03796472e-07       1.07395798e-05      -2.05459265e-05 
      -6.47446218e-07       1.07395791e-05      -2.05459247e-05 
       2.01866437e-07       1.07395799e-05      -2.05459272e-05 
       6.45516183e-07       1.07395806e-05      -2.05459291e-05 
      -2.03796472e-07       1.07395798e-05      -2.05459265e-05 
      -6.47446218e-07       1.07395791e-05      -2.05459247e-05 
       2.01866437e-07       1.07395799e-05      -2.05459272e-05 
       6.45516183e-07       1.07395806e-05      -2.05459291e-05 
      -2.08089651e-07       1.13639069e-05      -2.17411717e-05 
      -6.61018534e-07       1.13639062e-05      -2.17411698e-05 
       2.06127576e-07       1.13639071e-05      -2.17411725e-05 
       6.59056459e-07       1.13639078e-05      -2.17411743e-05 
      -2.08089651e-07       1.13639069e-05      -2.17411717e-05 
      -6.61018534e-07       1.13639062e-05      -2.17411698e-05 
       2.06127576e-07       1.13639071e-05      -2.17411725e-05 
       6.59056459e-07       1.13639078e-05      -2.17411743e-05 
      -2.12267439e-07       1.20009770e-05      -2.29609118e-05 
      -6.74217833e-07       1.20009762e-05      -2.29609098e-05 
       2.10272929e-07       1.20009771e-05      -2.29609126e-05 
       6.72223322e-07       1.20009779e-05      -2.29609145e-05 
      -2.12267439e-07       1.20009770e-05      -2.29609118e-05 
      -6.74217833e-07       1.20009762e-05      -2.29609098e-05 
       2.10272929e-07       1.20009771e-05      -2.29609126e-05 
       6.72223322e-07       1.20009779e-05      -2.29609145e-05 
      -2.16329830e-07       1.26504312e-05      -2.42044660e-05 
      -6.87044111e-07       1.26504304e-05      -2.42044640e-05 
       2.14302497e-07       1.26504314e-05      -2.42044668e-05 
       6.85016778e-07       1.26504321e-05      -2.42044689e-05 
      -2.16329830e-07       1.26504312e-05      -2.42044660e-05 
      -6.87044111e-07       1.26504304e-05      -2.42044640e-05 
       2.14302497e-07       1.26504314e-05      -2.42044668e-05 
       6.85016778e-07       1.26504321e-05      -2.42044689e-05 
      -2.20276820e-07       1.33119108e-05      -2.54711537e-05 
      -6.99497363e-07       1.33119100e-05      -2.54711517e-05 
       2.18216288e-07       1.33119110e-05      -2.54711546e-05 
       6.97436832e-07       1.33119118e-05      -2.54711566e-05 
      -2.20276820e-07       1.33119108e-05      -2.54711537e-05 
      -6.99497363e-07       1.33119100e-05      -2.54711517e-05 
       2.18216288e-07       1.33119110e-05      -2.54711546e-05 
       6.97436832e-07       1.33119118e-05      -2.54711566e-05 
      -2.24108402e-07       1.39850570e-05      -2.67602941e-05 
      -7.11577583e-07       1.39850562e-05      -2.67602920e-05 
       2.22014307e-07       1.39850572e-05      -2.67602950e-05 
       7.09483488e-07       1.39850580e-05      -2.67602972e-05 
      -2.24108402e-07       1.39850570e-05      -2.67602941e-05 
      -7.11577583e-07       1.39850562e-05      -2.67602920e-05 
       2.22014307e-07       1.39850572e-05      -2.67602950e-05 
       7.09483488e-07       1.39850580e-05      -2.67602972e-05 
      -2.27824570e-07       1.46695110e-05      -2.80712066e-05 
      -7.23284765e-07       1.46695102e-05      -2.80712044e-05 
       2.25696560e-07       1.46695113e-05      -2.80712075e-05 
       7.21156755e-07       1.46695121e-05      -2.80712097e-05 
      -2.27824570e-07       1.46695110e-05      -2.80712066e-05 
      -7.23284765e-07       1.46695102e-05      -2.80712044e-05 
       2.25696560e-07       1.46695113e-05      -2.80712075e-05 
       7.21156755e-07       1.46695121e-05      -2.80712097e-05 
      -2.31425318e-07       1.53649142e-05      -2.94032103e-05 
      -7.34618902e-07       1.53649133e-05      -2.94032081e-05 
       2.29263053e-07       1.53649144e-05      -2.94032113e-05 
       7.32456637e-07       1.53649153e-05      -2.94032135e-05 
      -2.31425318e-07       1.53649142e-05      -2.94032103e-05 
      -7.34618902e-07       1.53649133e-05      -2.94032081e-05 