# vtk DataFile Version 2.0
./output/onsasExample_BladeCantileverBeamNoPitch_windVel3DDynamic 3D/onsasExample_BladeCantileverBeamNoPitch_windVel3DDynamic 3D_0315.vtk
ASCII
DATASET UNSTRUCTURED_GRID

POINTS 800 float
       2.866294e-24      -7.180703e-02      -7.180703e-02 
      -1.357467e-23       7.180703e-02      -7.180703e-02 
      -2.866294e-24       7.180703e-02       7.180703e-02 
       1.357467e-23      -7.180703e-02       7.180703e-02 
       2.000000e-01      -7.180702e-02      -7.180706e-02 
       2.000000e-01       7.180705e-02      -7.180706e-02 
       2.000000e-01       7.180705e-02       7.180701e-02 
       2.000000e-01      -7.180702e-02       7.180701e-02 
       2.000000e-01      -7.180702e-02      -7.180706e-02 
       2.000000e-01       7.180705e-02      -7.180706e-02 
       2.000000e-01       7.180705e-02       7.180701e-02 
       2.000000e-01      -7.180702e-02       7.180701e-02 
       4.000000e-01      -7.180698e-02      -7.180714e-02 
       3.999999e-01       7.180709e-02      -7.180714e-02 
       4.000000e-01       7.180709e-02       7.180693e-02 
       4.000001e-01      -7.180698e-02       7.180693e-02 
       4.000000e-01      -7.180698e-02      -7.180714e-02 
       3.999999e-01       7.180709e-02      -7.180714e-02 
       4.000000e-01       7.180709e-02       7.180693e-02 
       4.000001e-01      -7.180698e-02       7.180693e-02 
       6.000000e-01      -7.180691e-02      -7.180726e-02 
       5.999999e-01       7.180715e-02      -7.180726e-02 
       6.000000e-01       7.180715e-02       7.180680e-02 
       6.000001e-01      -7.180691e-02       7.180680e-02 
       6.000000e-01      -7.180691e-02      -7.180726e-02 
       5.999999e-01       7.180715e-02      -7.180726e-02 
       6.000000e-01       7.180715e-02       7.180680e-02 
       6.000001e-01      -7.180691e-02       7.180680e-02 
       8.000000e-01      -7.180682e-02      -7.180744e-02 
       7.999999e-01       7.180725e-02      -7.180744e-02 
       8.000000e-01       7.180725e-02       7.180663e-02 
       8.000001e-01      -7.180682e-02       7.180663e-02 
       8.000000e-01      -7.180682e-02      -7.180744e-02 
       7.999999e-01       7.180725e-02      -7.180744e-02 
       8.000000e-01       7.180725e-02       7.180663e-02 
       8.000001e-01      -7.180682e-02       7.180663e-02 
       1.000000e+00      -7.180670e-02      -7.180766e-02 
       9.999999e-01       7.180737e-02      -7.180766e-02 
       1.000000e+00       7.180737e-02       7.180640e-02 
       1.000000e+00      -7.180670e-02       7.180640e-02 
       1.000000e+00      -7.180670e-02      -7.180766e-02 
       9.999999e-01       7.180737e-02      -7.180766e-02 
       1.000000e+00       7.180737e-02       7.180640e-02 
       1.000000e+00      -7.180670e-02       7.180640e-02 
       1.200000e+00      -7.180656e-02      -7.180794e-02 
       1.200000e+00       7.180751e-02      -7.180794e-02 
       1.200000e+00       7.180751e-02       7.180613e-02 
       1.200000e+00      -7.180656e-02       7.180613e-02 
       1.200000e+00      -7.180656e-02      -7.180794e-02 
       1.200000e+00       7.180751e-02      -7.180794e-02 
       1.200000e+00       7.180751e-02       7.180613e-02 
       1.200000e+00      -7.180656e-02       7.180613e-02 
       1.400000e+00      -7.180639e-02      -7.180825e-02 
       1.400000e+00       7.180768e-02      -7.180825e-02 
       1.400000e+00       7.180768e-02       7.180581e-02 
       1.400000e+00      -7.180639e-02       7.180581e-02 
       1.400000e+00      -7.180639e-02      -7.180825e-02 
       1.400000e+00       7.180768e-02      -7.180825e-02 
       1.400000e+00       7.180768e-02       7.180581e-02 
       1.400000e+00      -7.180639e-02       7.180581e-02 
       1.600000e+00      -7.180620e-02      -7.180862e-02 
       1.600000e+00       7.180787e-02      -7.180862e-02 
       1.600000e+00       7.180787e-02       7.180545e-02 
       1.600000e+00      -7.180620e-02       7.180545e-02 
       1.600000e+00      -7.180620e-02      -7.180862e-02 
       1.600000e+00       7.180787e-02      -7.180862e-02 
       1.600000e+00       7.180787e-02       7.180545e-02 
       1.600000e+00      -7.180620e-02       7.180545e-02 
       1.800000e+00      -7.180598e-02      -7.180902e-02 
       1.800000e+00       7.180809e-02      -7.180902e-02 
       1.800000e+00       7.180809e-02       7.180504e-02 
       1.800000e+00      -7.180598e-02       7.180504e-02 
       1.800000e+00      -7.180598e-02      -7.180902e-02 
       1.800000e+00       7.180809e-02      -7.180902e-02 
       1.800000e+00       7.180809e-02       7.180504e-02 
       1.800000e+00      -7.180598e-02       7.180504e-02 
       2.000000e+00      -7.180574e-02      -7.180947e-02 
       2.000000e+00       7.180832e-02      -7.180947e-02 
       2.000000e+00       7.180832e-02       7.180459e-02 
       2.000000e+00      -7.180574e-02       7.180459e-02 
       2.000000e+00      -7.180574e-02      -7.180947e-02 
       2.000000e+00       7.180832e-02      -7.180947e-02 
       2.000000e+00       7.180832e-02       7.180459e-02 
       2.000000e+00      -7.180574e-02       7.180459e-02 
       2.200000e+00      -7.180548e-02      -7.180997e-02 
       2.200000e+00       7.180858e-02      -7.180997e-02 
       2.200000e+00       7.180858e-02       7.180410e-02 
       2.200000e+00      -7.180548e-02       7.180410e-02 
       2.200000e+00      -7.180548e-02      -7.180997e-02 
       2.200000e+00       7.180858e-02      -7.180997e-02 
       2.200000e+00       7.180858e-02       7.180410e-02 
       2.200000e+00      -7.180548e-02       7.180410e-02 
       2.400000e+00      -7.180520e-02      -7.181050e-02 
       2.400000e+00       7.180887e-02      -7.181050e-02 
       2.400000e+00       7.180887e-02       7.180357e-02 
       2.400000e+00      -7.180520e-02       7.180357e-02 
       2.400000e+00      -7.180520e-02      -7.181050e-02 
       2.400000e+00       7.180887e-02      -7.181050e-02 
       2.400000e+00       7.180887e-02       7.180357e-02 
       2.400000e+00      -7.180520e-02       7.180357e-02 
       2.600000e+00      -7.180490e-02      -7.181107e-02 
       2.600000e+00       7.180917e-02      -7.181107e-02 
       2.600000e+00       7.180917e-02       7.180299e-02 
       2.600000e+00      -7.180490e-02       7.180299e-02 
       2.600000e+00      -7.180490e-02      -7.181107e-02 
       2.600000e+00       7.180917e-02      -7.181107e-02 
       2.600000e+00       7.180917e-02       7.180299e-02 
       2.600000e+00      -7.180490e-02       7.180299e-02 
       2.800000e+00      -7.180457e-02      -7.181169e-02 
       2.800000e+00       7.180949e-02      -7.181169e-02 
       2.800000e+00       7.180949e-02       7.180238e-02 
       2.800000e+00      -7.180457e-02       7.180238e-02 
       2.800000e+00      -7.180457e-02      -7.181169e-02 
       2.800000e+00       7.180949e-02      -7.181169e-02 
       2.800000e+00       7.180949e-02       7.180238e-02 
       2.800000e+00      -7.180457e-02       7.180238e-02 
       3.000000e+00      -7.180423e-02      -7.181234e-02 
       3.000000e+00       7.180984e-02      -7.181234e-02 
       3.000000e+00       7.180984e-02       7.180173e-02 
       3.000000e+00      -7.180423e-02       7.180173e-02 
       3.000000e+00      -7.180423e-02      -7.181234e-02 
       3.000000e+00       7.180984e-02      -7.181234e-02 
       3.000000e+00       7.180984e-02       7.180173e-02 
       3.000000e+00      -7.180423e-02       7.180173e-02 
       3.200000e+00      -7.180386e-02      -7.181303e-02 
       3.200000e+00       7.181020e-02      -7.181303e-02 
       3.200000e+00       7.181020e-02       7.180104e-02 
       3.200000e+00      -7.180386e-02       7.180104e-02 
       3.200000e+00      -7.180386e-02      -7.181303e-02 
       3.200000e+00       7.181020e-02      -7.181303e-02 
       3.200000e+00       7.181020e-02       7.180104e-02 
       3.200000e+00      -7.180386e-02       7.180104e-02 
       3.400000e+00      -7.180348e-02      -7.181375e-02 
       3.400000e+00       7.181059e-02      -7.181375e-02 
       3.400000e+00       7.181059e-02       7.180031e-02 
       3.400000e+00      -7.180348e-02       7.180031e-02 
       3.400000e+00      -7.180348e-02      -7.181375e-02 
       3.400000e+00       7.181059e-02      -7.181375e-02 
       3.400000e+00       7.181059e-02       7.180031e-02 
       3.400000e+00      -7.180348e-02       7.180031e-02 
       3.600000e+00      -7.180307e-02      -7.181452e-02 
       3.600000e+00       7.181099e-02      -7.181452e-02 
       3.600000e+00       7.181099e-02       7.179955e-02 
       3.600000e+00      -7.180307e-02       7.179955e-02 
       3.600000e+00      -7.180307e-02      -7.181452e-02 
       3.600000e+00       7.181099e-02      -7.181452e-02 
       3.600000e+00       7.181099e-02       7.179955e-02 
       3.600000e+00      -7.180307e-02       7.179955e-02 
       3.800000e+00      -7.180265e-02      -7.181531e-02 
       3.800000e+00       7.181141e-02      -7.181531e-02 
       3.800000e+00       7.181141e-02       7.179875e-02 
       3.800000e+00      -7.180265e-02       7.179875e-02 
       3.800000e+00      -7.180265e-02      -7.181531e-02 
       3.800000e+00       7.181141e-02      -7.181531e-02 
       3.800000e+00       7.181141e-02       7.179875e-02 
       3.800000e+00      -7.180265e-02       7.179875e-02 
       4.000000e+00      -7.180221e-02      -7.181614e-02 
       4.000000e+00       7.181185e-02      -7.181614e-02 
       4.000000e+00       7.181185e-02       7.179792e-02 
       4.000000e+00      -7.180221e-02       7.179792e-02 
       4.000000e+00      -7.180221e-02      -7.181614e-02 
       4.000000e+00       7.181185e-02      -7.181614e-02 
       4.000000e+00       7.181185e-02       7.179792e-02 
       4.000000e+00      -7.180221e-02       7.179792e-02 
       4.200000e+00      -7.180175e-02      -7.181701e-02 
[...]
POINT_DATA       800 
VECTORS Displacements float
       2.86629390e-24       0.00000000e+00       0.00000000e+00 
      -1.35746700e-23       0.00000000e+00      -1.38777878e-17 
      -2.86629390e-24       0.00000000e+00       0.00000000e+00 
       1.35746700e-23       0.00000000e+00       1.38777878e-17 
      -8.77308673e-09       1.36994114e-08      -2.58969342e-08 
      -2.83842507e-08       1.36994101e-08      -2.58969044e-08 
       8.68780597e-09       1.36993853e-08      -2.58969092e-08 
       2.82989700e-08       1.36993867e-08      -2.58969390e-08 
      -8.77308673e-09       1.36994114e-08      -2.58969342e-08 
      -2.83842507e-08       1.36994101e-08      -2.58969044e-08 
       8.68780597e-09       1.36993853e-08      -2.58969092e-08 
       2.82989700e-08       1.36993867e-08      -2.58969390e-08 
      -1.73768537e-08       5.44461260e-08      -1.02921671e-07 
      -5.62205872e-08       5.44461207e-08      -1.02921607e-07 
       1.72061326e-08       5.44460761e-08      -1.02921626e-07 
       5.60498661e-08       5.44460814e-08      -1.02921690e-07 
      -1.73768537e-08       5.44461260e-08      -1.02921671e-07 
      -5.62205872e-08       5.44461207e-08      -1.02921607e-07 
       1.72061326e-08       5.44460761e-08      -1.02921626e-07 
       5.60498661e-08       5.44460814e-08      -1.02921690e-07 
      -2.58112995e-08       1.21712905e-07      -2.30075154e-07 
      -8.35090080e-08       1.21712894e-07      -2.30075050e-07 
       2.55549815e-08       1.21712834e-07      -2.30075092e-07 
       8.32526900e-08       1.21712845e-07      -2.30075195e-07 
      -2.58112995e-08       1.21712905e-07      -2.30075154e-07 
      -8.35090080e-08       1.21712894e-07      -2.30075050e-07 
       2.55549815e-08       1.21712834e-07      -2.30075092e-07 
       8.32526900e-08       1.21712845e-07      -2.30075195e-07 
      -3.40764224e-08       2.14972510e-07      -4.06358325e-07 
      -1.10249512e-07       2.14972490e-07      -4.06358178e-07 
       3.37343539e-08       2.14972419e-07      -4.06358250e-07 
       1.09907443e-07       2.14972439e-07      -4.06358397e-07 
      -3.40764224e-08       2.14972510e-07      -4.06358325e-07 
      -1.10249512e-07       2.14972490e-07      -4.06358178e-07 
       3.37343539e-08       2.14972419e-07      -4.06358250e-07 
       1.09907443e-07       2.14972439e-07      -4.06358397e-07 
      -4.21722209e-08       3.33697702e-07      -6.30772126e-07 
      -1.36442096e-07       3.33697671e-07      -6.30771932e-07 
       4.17442516e-08       3.33697594e-07      -6.30772042e-07 
       1.36014127e-07       3.33697624e-07      -6.30772237e-07 
      -4.21722209e-08       3.33697702e-07      -6.30772126e-07 
      -1.36442096e-07       3.33697671e-07      -6.30771932e-07 
       4.17442516e-08       3.33697594e-07      -6.30772042e-07 
       1.36014127e-07       3.33697624e-07      -6.30772237e-07 
      -5.00986936e-08       4.77361243e-07      -9.02317501e-07 
      -1.62086760e-07       4.77361199e-07      -9.02317255e-07 
       4.95846766e-08       4.77361118e-07      -9.02317411e-07 
       1.61572743e-07       4.77361162e-07      -9.02317657e-07 
      -5.00986936e-08       4.77361243e-07      -9.02317501e-07 
      -1.62086760e-07       4.77361199e-07      -9.02317255e-07 
       4.95846766e-08       4.77361118e-07      -9.02317411e-07 
       1.61572743e-07       4.77361162e-07      -9.02317657e-07 
      -5.78558388e-08       6.45435894e-07      -1.21999539e-06 
      -1.87183503e-07       6.45435836e-07      -1.21999509e-06 
       5.72556293e-08       6.45435755e-07      -1.21999530e-06 
       1.86583293e-07       6.45435813e-07      -1.21999560e-06 
      -5.78558388e-08       6.45435894e-07      -1.21999539e-06 
      -1.87183503e-07       6.45435836e-07      -1.21999509e-06 
       5.72556293e-08       6.45435755e-07      -1.21999530e-06 
       1.86583293e-07       6.45435813e-07      -1.21999560e-06 
      -6.54436545e-08       8.37394416e-07      -1.58280674e-06 
      -2.11732321e-07       8.37394341e-07      -1.58280638e-06 
       6.47571128e-08       8.37394264e-07      -1.58280665e-06 
       2.11045779e-07       8.37394338e-07      -1.58280701e-06 
      -6.54436545e-08       8.37394416e-07      -1.58280674e-06 
      -2.11732321e-07       8.37394341e-07      -1.58280638e-06 
       6.47571128e-08       8.37394264e-07      -1.58280665e-06 
       2.11045779e-07       8.37394338e-07      -1.58280701e-06 
      -7.28621399e-08       1.05270957e-06      -1.98975249e-06 
      -2.35733215e-07       1.05270948e-06      -1.98975207e-06 
       7.20891273e-08       1.05270941e-06      -1.98975240e-06 
       2.34960202e-07       1.05270950e-06      -1.98975282e-06 
      -7.28621399e-08       1.05270957e-06      -1.98975249e-06 
      -2.35733215e-07       1.05270948e-06      -1.98975207e-06 
       7.20891273e-08       1.05270941e-06      -1.98975240e-06 
       2.34960202e-07       1.05270950e-06      -1.98975282e-06 
      -8.01112932e-08       1.29085412e-06      -2.43983359e-06 
      -2.59186182e-07       1.29085401e-06      -2.43983310e-06 
       7.92516750e-08       1.29085395e-06      -2.43983350e-06 
       2.58326564e-07       1.29085406e-06      -2.43983399e-06 
      -8.01112932e-08       1.29085412e-06      -2.43983359e-06 
      -2.59186182e-07       1.29085401e-06      -2.43983310e-06 
       7.92516750e-08       1.29085395e-06      -2.43983350e-06 
       2.58326563e-07       1.29085406e-06      -2.43983399e-06 
      -8.71860508e-08       1.55130995e-06      -2.93206852e-06 
      -2.82105999e-07       1.55130982e-06      -2.93206799e-06 
       8.62682925e-08       1.55130978e-06      -2.93206846e-06 
       2.81188241e-07       1.55130991e-06      -2.93206900e-06 
      -8.71860508e-08       1.55130995e-06      -2.93206852e-06 
      -2.82105999e-07       1.55130982e-06      -2.93206799e-06 
       8.62682925e-08       1.55130978e-06      -2.93206846e-06 
       2.81188241e-07       1.55130991e-06      -2.93206900e-06 
      -9.41106948e-08       1.83359641e-06      -3.46554873e-06 
      -3.04537425e-07       1.83359625e-06      -3.46554814e-06 
       9.31344446e-08       1.83359624e-06      -3.46554869e-06 
       3.03561175e-07       1.83359640e-06      -3.46554929e-06 
      -9.41106948e-08       1.83359641e-06      -3.46554873e-06 
      -3.04537425e-07       1.83359625e-06      -3.46554814e-06 
       9.31344446e-08       1.83359624e-06      -3.46554869e-06 
       3.03561175e-07       1.83359640e-06      -3.46554929e-06 
      -1.00885222e-07       2.13724239e-06      -4.03938453e-06 
      -3.26480458e-07       2.13724221e-06      -4.03938388e-06 
       9.98501339e-08       2.13724223e-06      -4.03938451e-06 
       3.25445370e-07       2.13724241e-06      -4.03938516e-06 
      -1.00885222e-07       2.13724239e-06      -4.03938453e-06 
      -3.26480458e-07       2.13724221e-06      -4.03938388e-06 
       9.98501339e-08       2.13724223e-06      -4.03938451e-06 
       3.25445370e-07       2.13724241e-06      -4.03938516e-06 
      -1.07509627e-07       2.46177681e-06      -4.65268623e-06 
      -3.47935091e-07       2.46177661e-06      -4.65268552e-06 
       1.06415366e-07       2.46177666e-06      -4.65268623e-06 
       3.46840831e-07       2.46177686e-06      -4.65268695e-06 
      -1.07509627e-07       2.46177681e-06      -4.65268623e-06 
      -3.47935091e-07       2.46177661e-06      -4.65268552e-06 
       1.06415366e-07       2.46177666e-06      -4.65268623e-06 
       3.46840831e-07       2.46177686e-06      -4.65268695e-06 
      -1.13983907e-07       2.80672857e-06      -5.30456414e-06 
      -3.68901324e-07       2.80672835e-06      -5.30456337e-06 
       1.12830143e-07       2.80672843e-06      -5.30456418e-06 
       3.67747559e-07       2.80672865e-06      -5.30456495e-06 
      -1.13983907e-07       2.80672857e-06      -5.30456414e-06 
      -3.68901324e-07       2.80672835e-06      -5.30456337e-06 
       1.12830143e-07       2.80672843e-06      -5.30456418e-06 
       3.67747559e-07       2.80672865e-06      -5.30456495e-06 
      -1.20308060e-07       3.17162659e-06      -5.99412859e-06 
      -3.89379150e-07       3.17162634e-06      -5.99412775e-06 
       1.19094469e-07       3.17162645e-06      -5.99412865e-06 
       3.88165559e-07       3.17162671e-06      -5.99412949e-06 
      -1.20308060e-07       3.17162659e-06      -5.99412859e-06 
      -3.89379150e-07       3.17162634e-06      -5.99412775e-06 
       1.19094469e-07       3.17162645e-06      -5.99412865e-06 
       3.88165559e-07       3.17162671e-06      -5.99412949e-06 
      -1.26482078e-07       3.55599977e-06      -6.72048988e-06 
      -4.09368566e-07       3.55599949e-06      -6.72048898e-06 
       1.25208348e-07       3.55599964e-06      -6.72048997e-06 
       4.08094837e-07       3.55599992e-06      -6.72049088e-06 
      -1.26482078e-07       3.55599977e-06      -6.72048988e-06 
      -4.09368566e-07       3.55599949e-06      -6.72048898e-06 
       1.25208348e-07       3.55599964e-06      -6.72048997e-06 
       4.08094837e-07       3.55599992e-06      -6.72049088e-06 
      -1.32505960e-07       3.95937702e-06      -7.48275834e-06 
      -4.28869569e-07       3.95937671e-06      -7.48275737e-06 
       1.31171785e-07       3.95937690e-06      -7.48275846e-06 
       4.27535393e-07       3.95937720e-06      -7.48275943e-06 
      -1.32505960e-07       3.95937702e-06      -7.48275834e-06 
      -4.28869569e-07       3.95937671e-06      -7.48275737e-06 
       1.31171785e-07       3.95937690e-06      -7.48275846e-06 
       4.27535393e-07       3.95937720e-06      -7.48275943e-06 
      -1.38379702e-07       4.38128725e-06      -8.28004427e-06 
      -4.47882154e-07       4.38128691e-06      -8.28004323e-06 
       1.36984782e-07       4.38128714e-06      -8.28004442e-06 
       4.46487234e-07       4.38128747e-06      -8.28004546e-06 
      -1.38379702e-07       4.38128725e-06      -8.28004427e-06 
      -4.47882154e-07       4.38128691e-06      -8.28004323e-06 
       1.36984782e-07       4.38128714e-06      -8.28004442e-06 
       4.46487234e-07       4.38128747e-06      -8.28004546e-06 
      -1.44103302e-07       4.82125936e-06      -9.11145799e-06 
      -4.66406319e-07       4.82125900e-06      -9.11145688e-06 
       1.42647344e-07       4.82125926e-06      -9.11145817e-06 
       4.64950361e-07       4.82125962e-06      -9.11145928e-06 
      -1.44103302e-07       4.82125936e-06      -9.11145799e-06 
      -4.66406319e-07       4.82125900e-06      -9.11145688e-06 
       1.42647344e-07       4.82125926e-06      -9.11145817e-06 
       4.64950362e-07       4.82125962e-06      -9.11145928e-06 
      -1.49676545e-07       5.27883170e-06      -9.97612856e-06 
      -4.84462144e-07       5.27883131e-06      -9.97612739e-06 
       1.48179396e-07       5.27883161e-06      -9.97612879e-06 
       4.82964994e-07       5.27883200e-06      -9.97612996e-06 
      -1.49676545e-07       5.27883170e-06      -9.97612856e-06 
      -4.84462144e-07       5.27883131e-06      -9.97612739e-06 
       1.48179396e-07       5.27883161e-06      -9.97612879e-06 
       4.82964994e-07       5.27883200e-06      -9.97612996e-06 
      -1.55118709e-07       5.75358018e-06      -1.08732579e-05 
      -5.02089092e-07       5.75357976e-06      -1.08732567e-05 
       1.53579952e-07       5.75358011e-06      -1.08732582e-05 
       5.00550335e-07       5.75358053e-06      -1.08732594e-05 
      -1.55118709e-07       5.75358018e-06      -1.08732579e-05 
      -5.02089092e-07       5.75357976e-06      -1.08732567e-05 
       1.53579952e-07       5.75358011e-06      -1.08732582e-05 
       5.00550335e-07       5.75358053e-06      -1.08732594e-05 
      -1.60429789e-07       6.24509009e-06      -1.18020657e-05 
      -5.19287159e-07       6.24508965e-06      -1.18020644e-05 
       1.58849020e-07       6.24509005e-06      -1.18020660e-05 
       5.17706391e-07       6.24509049e-06      -1.18020673e-05 
      -1.60429789e-07       6.24509009e-06      -1.18020657e-05 
      -5.19287159e-07       6.24508965e-06      -1.18020644e-05 
       1.58849020e-07       6.24509005e-06      -1.18020660e-05 
       5.17706391e-07       6.24509049e-06      -1.18020673e-05 
      -1.65609780e-07       6.75294672e-06      -1.27617715e-05 
      -5.36056342e-07       6.75294624e-06      -1.27617701e-05 
       1.63986601e-07       6.75294669e-06      -1.27617718e-05 
       5.34433164e-07       6.75294717e-06      -1.27617732e-05 
      -1.65609780e-07       6.75294672e-06      -1.27617715e-05 
      -5.36056342e-07       6.75294624e-06      -1.27617701e-05 
       1.63986601e-07       6.75294669e-06      -1.27617718e-05 
       5.34433164e-07       6.75294717e-06      -1.27617732e-05 
      -1.70658677e-07       7.27673534e-06      -1.37515949e-05 
      -5.52396633e-07       7.27673484e-06      -1.37515934e-05 
       1.68992702e-07       7.27673533e-06      -1.37515953e-05 
       5.50730659e-07       7.27673584e-06      -1.37515967e-05 
      -1.70658677e-07       7.27673534e-06      -1.37515949e-05 
      -5.52396633e-07       7.27673484e-06      -1.37515934e-05 
       1.68992702e-07       7.27673533e-06      -1.37515953e-05 
       5.50730659e-07       7.27673584e-06      -1.37515967e-05 
      -1.75576474e-07       7.81604124e-06      -1.47707555e-05 
      -5.68308029e-07       7.81604071e-06      -1.47707540e-05 
       1.73867329e-07       7.81604125e-06      -1.47707560e-05 
       5.66598883e-07       7.81604179e-06      -1.47707574e-05 
      -1.75576474e-07       7.81604124e-06      -1.47707555e-05 
      -5.68308029e-07       7.81604071e-06      -1.47707540e-05 
       1.73867329e-07       7.81604125e-06      -1.47707560e-05 
       5.66598883e-07       7.81604179e-06      -1.47707574e-05 
      -1.80363168e-07       8.37044970e-06      -1.58184730e-05 
      -5.83790525e-07       8.37044913e-06      -1.58184715e-05 
       1.78610485e-07       8.37044973e-06      -1.58184735e-05 
       5.82037841e-07       8.37045029e-06      -1.58184751e-05 
      -1.80363168e-07       8.37044970e-06      -1.58184730e-05 
      -5.83790525e-07       8.37044913e-06      -1.58184715e-05 
       1.78610485e-07       8.37044973e-06      -1.58184735e-05 
       5.82037841e-07       8.37045029e-06      -1.58184751e-05 
      -1.85018751e-07       8.93954600e-06      -1.68939670e-05 
      -5.98844114e-07       8.93954541e-06      -1.68939654e-05 
       1.83222175e-07       8.93954605e-06      -1.68939676e-05 
       5.97047538e-07       8.93954664e-06      -1.68939692e-05 
      -1.85018751e-07       8.93954600e-06      -1.68939670e-05 
      -5.98844114e-07       8.93954541e-06      -1.68939654e-05 
       1.83222175e-07       8.93954605e-06      -1.68939676e-05 
       5.97047538e-07       8.93954664e-06      -1.68939692e-05 
      -1.89543222e-07       9.52291543e-06      -1.79964571e-05 
      -6.13468793e-07       9.52291480e-06      -1.79964555e-05 
       1.87702407e-07       9.52291549e-06      -1.79964577e-05 
       6.11627977e-07       9.52291612e-06      -1.79964594e-05 
      -1.89543222e-07       9.52291543e-06      -1.79964571e-05 
      -6.13468793e-07       9.52291480e-06      -1.79964555e-05 
       1.87702407e-07       9.52291549e-06      -1.79964577e-05 
       6.11627977e-07       9.52291612e-06      -1.79964594e-05 
      -1.93936573e-07       1.01201433e-05      -1.91251629e-05 
      -6.27664555e-07       1.01201426e-05      -1.91251612e-05 
       1.92051182e-07       1.01201433e-05      -1.91251635e-05 
       6.25779164e-07       1.01201440e-05      -1.91251653e-05 
      -1.93936573e-07       1.01201433e-05      -1.91251629e-05 
      -6.27664556e-07       1.01201426e-05      -1.91251612e-05 
       1.92051181e-07       1.01201433e-05      -1.91251635e-05 
       6.25779164e-07       1.01201440e-05      -1.91251653e-05 
      -1.98201661e-07       1.07308243e-05      -2.02793228e-05 
      -6.41454589e-07       1.07308236e-05      -2.02793210e-05 
       1.96285007e-07       1.07308244e-05      -2.02793234e-05 
       6.39537935e-07       1.07308250e-05      -2.02793252e-05 
      -1.98201661e-07       1.07308243e-05      -2.02793228e-05 
      -6.41454589e-07       1.07308236e-05      -2.02793210e-05 
       1.96285007e-07       1.07308244e-05      -2.02793234e-05 
       6.39537935e-07       1.07308250e-05      -2.02793252e-05 
      -2.02353950e-07       1.13545906e-05      -2.14582464e-05 
      -6.54874303e-07       1.13545899e-05      -2.14582445e-05 
       2.00405635e-07       1.13545907e-05      -2.14582471e-05 
       6.52925989e-07       1.13545914e-05      -2.14582489e-05 
      -2.02353950e-07       1.13545906e-05      -2.14582464e-05 
      -6.54874303e-07       1.13545899e-05      -2.14582445e-05 
       2.00405635e-07       1.13545907e-05      -2.14582471e-05 
       6.52925989e-07       1.13545914e-05      -2.14582489e-05 
      -2.06393432e-07       1.19910836e-05      -2.26612603e-05 
      -6.67923693e-07       1.19910829e-05      -2.26612584e-05 
       2.04413070e-07       1.19910838e-05      -2.26612611e-05 
       6.65943332e-07       1.19910845e-05      -2.26612630e-05 
      -2.06393432e-07       1.19910836e-05      -2.26612603e-05 
      -6.67923693e-07       1.19910829e-05      -2.26612584e-05 
       2.04413070e-07       1.19910838e-05      -2.26612611e-05 
       6.65943332e-07       1.19910845e-05      -2.26612630e-05 
      -2.10320105e-07       1.26399447e-05      -2.38876913e-05 
      -6.80602754e-07       1.26399439e-05      -2.38876893e-05 
       2.08307319e-07       1.26399449e-05      -2.38876921e-05 
       6.78589966e-07       1.26399457e-05      -2.38876940e-05 
      -2.10320105e-07       1.26399447e-05      -2.38876913e-05 
      -6.80602754e-07       1.26399439e-05      -2.38876893e-05 
       2.08307319e-07       1.26399449e-05      -2.38876921e-05 
       6.78589966e-07       1.26399457e-05      -2.38876940e-05 
      -2.14133963e-07       1.33008153e-05      -2.51368659e-05 
      -6.92911478e-07       1.33008145e-05      -2.51368639e-05 
       2.12088384e-07       1.33008155e-05      -2.51368668e-05 
       6.90865900e-07       1.33008163e-05      -2.51368688e-05 
      -2.14133963e-07       1.33008153e-05      -2.51368659e-05 
      -6.92911478e-07       1.33008145e-05      -2.51368639e-05 
       2.12088384e-07       1.33008155e-05      -2.51368668e-05 
       6.90865900e-07       1.33008163e-05      -2.51368688e-05 
      -2.17834999e-07       1.39733366e-05      -2.64081109e-05 
      -7.04849863e-07       1.39733358e-05      -2.64081088e-05 
       2.15756274e-07       1.39733368e-05      -2.64081117e-05 
       7.02771139e-07       1.39733377e-05      -2.64081138e-05 
      -2.17834999e-07       1.39733366e-05      -2.64081109e-05 
      -7.04849863e-07       1.39733358e-05      -2.64081088e-05 
       2.15756274e-07       1.39733368e-05      -2.64081117e-05 
       7.02771139e-07       1.39733377e-05      -2.64081138e-05 
      -2.21423209e-07       1.46571502e-05      -2.77007528e-05 
      -7.16417903e-07       1.46571493e-05      -2.77007506e-05 
       2.19310993e-07       1.46571504e-05      -2.77007537e-05 
       7.14305687e-07       1.46571513e-05      -2.77007558e-05 
      -2.21423209e-07       1.46571502e-05      -2.77007528e-05 
      -7.16417903e-07       1.46571493e-05      -2.77007506e-05 
       2.19310993e-07       1.46571504e-05      -2.77007537e-05 
       7.14305687e-07       1.46571513e-05      -2.77007558e-05 
      -2.24898585e-07       1.53518973e-05      -2.90141183e-05 
      -7.27615589e-07       1.53518964e-05      -2.90141161e-05 
       2.22752547e-07       1.53518976e-05      -2.90141192e-05 
       7.25469551e-07       1.53518985e-05      -2.90141214e-05 
      -2.24898585e-07       1.53518973e-05      -2.90141183e-05 
      -7.27615589e-07       1.53518964e-05      -2.90141161e-05 