# vtk DataFile Version 2.0
./output/onsasExample_BladeCantileverBeamNoPitch_windVel3DDynamic 3D/onsasExample_BladeCantileverBeamNoPitch_windVel3DDynamic 3D_0168.vtk
ASCII
DATASET UNSTRUCTURED_GRID

POINTS 800 float
       2.583542e-23      -7.180703e-02      -7.180703e-02 
       2.340657e-23       7.180703e-02      -7.180703e-02 
      -2.583542e-23       7.180703e-02       7.180703e-02 
      -2.340657e-23      -7.180703e-02       7.180703e-02 
       2.000000e-01      -7.180702e-02      -7.180706e-02 
       2.000000e-01       7.180705e-02      -7.180706e-02 
       2.000000e-01       7.180705e-02       7.180701e-02 
       2.000000e-01      -7.180702e-02       7.180701e-02 
       2.000000e-01      -7.180702e-02      -7.180706e-02 
       2.000000e-01       7.180705e-02      -7.180706e-02 
       2.000000e-01       7.180705e-02       7.180701e-02 
       2.000000e-01      -7.180702e-02       7.180701e-02 
       4.000000e-01      -7.180698e-02      -7.180714e-02 
       3.999999e-01       7.180709e-02      -7.180714e-02 
       4.000000e-01       7.180709e-02       7.180692e-02 
       4.000001e-01      -7.180698e-02       7.180692e-02 
       4.000000e-01      -7.180698e-02      -7.180714e-02 
       3.999999e-01       7.180709e-02      -7.180714e-02 
       4.000000e-01       7.180709e-02       7.180692e-02 
       4.000001e-01      -7.180698e-02       7.180692e-02 
       6.000000e-01      -7.180691e-02      -7.180728e-02 
       5.999999e-01       7.180716e-02      -7.180728e-02 
       6.000000e-01       7.180716e-02       7.180679e-02 
       6.000001e-01      -7.180691e-02       7.180679e-02 
       6.000000e-01      -7.180691e-02      -7.180728e-02 
       5.999999e-01       7.180716e-02      -7.180728e-02 
       6.000000e-01       7.180716e-02       7.180679e-02 
       6.000001e-01      -7.180691e-02       7.180679e-02 
       8.000000e-01      -7.180682e-02      -7.180747e-02 
       7.999999e-01       7.180725e-02      -7.180747e-02 
       8.000000e-01       7.180725e-02       7.180660e-02 
       8.000001e-01      -7.180682e-02       7.180660e-02 
       8.000000e-01      -7.180682e-02      -7.180747e-02 
       7.999999e-01       7.180725e-02      -7.180747e-02 
       8.000000e-01       7.180725e-02       7.180660e-02 
       8.000001e-01      -7.180682e-02       7.180660e-02 
       1.000000e+00      -7.180670e-02      -7.180771e-02 
       9.999999e-01       7.180737e-02      -7.180771e-02 
       1.000000e+00       7.180737e-02       7.180636e-02 
       1.000000e+00      -7.180670e-02       7.180636e-02 
       1.000000e+00      -7.180670e-02      -7.180771e-02 
       9.999999e-01       7.180737e-02      -7.180771e-02 
       1.000000e+00       7.180737e-02       7.180636e-02 
       1.000000e+00      -7.180670e-02       7.180636e-02 
       1.200000e+00      -7.180655e-02      -7.180800e-02 
       1.200000e+00       7.180751e-02      -7.180800e-02 
       1.200000e+00       7.180751e-02       7.180607e-02 
       1.200000e+00      -7.180655e-02       7.180607e-02 
       1.200000e+00      -7.180655e-02      -7.180800e-02 
       1.200000e+00       7.180751e-02      -7.180800e-02 
       1.200000e+00       7.180751e-02       7.180607e-02 
       1.200000e+00      -7.180655e-02       7.180607e-02 
       1.400000e+00      -7.180639e-02      -7.180834e-02 
       1.400000e+00       7.180768e-02      -7.180834e-02 
       1.400000e+00       7.180768e-02       7.180573e-02 
       1.400000e+00      -7.180639e-02       7.180573e-02 
       1.400000e+00      -7.180639e-02      -7.180834e-02 
       1.400000e+00       7.180768e-02      -7.180834e-02 
       1.400000e+00       7.180768e-02       7.180573e-02 
       1.400000e+00      -7.180639e-02       7.180573e-02 
       1.600000e+00      -7.180619e-02      -7.180873e-02 
       1.600000e+00       7.180787e-02      -7.180873e-02 
       1.600000e+00       7.180787e-02       7.180534e-02 
       1.600000e+00      -7.180619e-02       7.180534e-02 
       1.600000e+00      -7.180619e-02      -7.180873e-02 
       1.600000e+00       7.180787e-02      -7.180873e-02 
       1.600000e+00       7.180787e-02       7.180534e-02 
       1.600000e+00      -7.180619e-02       7.180534e-02 
       1.800000e+00      -7.180598e-02      -7.180916e-02 
       1.800000e+00       7.180809e-02      -7.180916e-02 
       1.800000e+00       7.180809e-02       7.180490e-02 
       1.800000e+00      -7.180598e-02       7.180490e-02 
       1.800000e+00      -7.180598e-02      -7.180916e-02 
       1.800000e+00       7.180809e-02      -7.180916e-02 
       1.800000e+00       7.180809e-02       7.180490e-02 
       1.800000e+00      -7.180598e-02       7.180490e-02 
       2.000000e+00      -7.180574e-02      -7.180964e-02 
       2.000000e+00       7.180833e-02      -7.180964e-02 
       2.000000e+00       7.180833e-02       7.180442e-02 
       2.000000e+00      -7.180574e-02       7.180442e-02 
       2.000000e+00      -7.180574e-02      -7.180964e-02 
       2.000000e+00       7.180833e-02      -7.180964e-02 
       2.000000e+00       7.180833e-02       7.180442e-02 
       2.000000e+00      -7.180574e-02       7.180442e-02 
       2.200000e+00      -7.180548e-02      -7.181017e-02 
       2.200000e+00       7.180859e-02      -7.181017e-02 
       2.200000e+00       7.180859e-02       7.180389e-02 
       2.200000e+00      -7.180548e-02       7.180389e-02 
       2.200000e+00      -7.180548e-02      -7.181017e-02 
       2.200000e+00       7.180859e-02      -7.181017e-02 
       2.200000e+00       7.180859e-02       7.180389e-02 
       2.200000e+00      -7.180548e-02       7.180389e-02 
       2.400000e+00      -7.180519e-02      -7.181074e-02 
       2.400000e+00       7.180887e-02      -7.181074e-02 
       2.400000e+00       7.180887e-02       7.180332e-02 
       2.400000e+00      -7.180519e-02       7.180332e-02 
       2.400000e+00      -7.180519e-02      -7.181074e-02 
       2.400000e+00       7.180887e-02      -7.181074e-02 
       2.400000e+00       7.180887e-02       7.180332e-02 
       2.400000e+00      -7.180519e-02       7.180332e-02 
       2.600000e+00      -7.180489e-02      -7.181136e-02 
       2.600000e+00       7.180918e-02      -7.181136e-02 
       2.600000e+00       7.180918e-02       7.180271e-02 
       2.600000e+00      -7.180489e-02       7.180271e-02 
       2.600000e+00      -7.180489e-02      -7.181136e-02 
       2.600000e+00       7.180918e-02      -7.181136e-02 
       2.600000e+00       7.180918e-02       7.180271e-02 
       2.600000e+00      -7.180489e-02       7.180271e-02 
       2.800000e+00      -7.180456e-02      -7.181202e-02 
       2.800000e+00       7.180950e-02      -7.181202e-02 
       2.800000e+00       7.180950e-02       7.180205e-02 
       2.800000e+00      -7.180456e-02       7.180205e-02 
       2.800000e+00      -7.180456e-02      -7.181202e-02 
       2.800000e+00       7.180950e-02      -7.181202e-02 
       2.800000e+00       7.180950e-02       7.180205e-02 
       2.800000e+00      -7.180456e-02       7.180205e-02 
       3.000000e+00      -7.180422e-02      -7.181272e-02 
       3.000000e+00       7.180985e-02      -7.181272e-02 
       3.000000e+00       7.180985e-02       7.180135e-02 
       3.000000e+00      -7.180422e-02       7.180135e-02 
       3.000000e+00      -7.180422e-02      -7.181272e-02 
       3.000000e+00       7.180985e-02      -7.181272e-02 
       3.000000e+00       7.180985e-02       7.180135e-02 
       3.000000e+00      -7.180422e-02       7.180135e-02 
       3.200000e+00      -7.180385e-02      -7.181346e-02 
       3.200000e+00       7.181021e-02      -7.181346e-02 
       3.200000e+00       7.181021e-02       7.180061e-02 
       3.200000e+00      -7.180385e-02       7.180061e-02 
       3.200000e+00      -7.180385e-02      -7.181346e-02 
       3.200000e+00       7.181021e-02      -7.181346e-02 
       3.200000e+00       7.181021e-02       7.180061e-02 
       3.200000e+00      -7.180385e-02       7.180061e-02 
       3.400000e+00      -7.180347e-02      -7.181424e-02 
       3.400000e+00       7.181060e-02      -7.181424e-02 
       3.400000e+00       7.181060e-02       7.179983e-02 
       3.400000e+00      -7.180347e-02       7.179983e-02 
       3.400000e+00      -7.180347e-02      -7.181424e-02 
       3.400000e+00       7.181060e-02      -7.181424e-02 
       3.400000e+00       7.181060e-02       7.179983e-02 
       3.400000e+00      -7.180347e-02       7.179983e-02 
       3.600000e+00      -7.180306e-02      -7.181505e-02 
       3.600000e+00       7.181100e-02      -7.181505e-02 
       3.600000e+00       7.181100e-02       7.179901e-02 
       3.600000e+00      -7.180306e-02       7.179901e-02 
       3.600000e+00      -7.180306e-02      -7.181505e-02 
       3.600000e+00       7.181100e-02      -7.181505e-02 
       3.600000e+00       7.181100e-02       7.179901e-02 
       3.600000e+00      -7.180306e-02       7.179901e-02 
       3.800000e+00      -7.180264e-02      -7.181591e-02 
       3.800000e+00       7.181143e-02      -7.181591e-02 
       3.800000e+00       7.181143e-02       7.179815e-02 
       3.800000e+00      -7.180264e-02       7.179815e-02 
       3.800000e+00      -7.180264e-02      -7.181591e-02 
       3.800000e+00       7.181143e-02      -7.181591e-02 
       3.800000e+00       7.181143e-02       7.179815e-02 
       3.800000e+00      -7.180264e-02       7.179815e-02 
       4.000000e+00      -7.180220e-02      -7.181681e-02 
       4.000000e+00       7.181187e-02      -7.181681e-02 
       4.000000e+00       7.181187e-02       7.179726e-02 
       4.000000e+00      -7.180220e-02       7.179726e-02 
       4.000000e+00      -7.180220e-02      -7.181681e-02 
       4.000000e+00       7.181187e-02      -7.181681e-02 
       4.000000e+00       7.181187e-02       7.179726e-02 
       4.000000e+00      -7.180220e-02       7.179726e-02 
       4.200000e+00      -7.180174e-02      -7.181773e-02 
[...]
POINT_DATA       800 
VECTORS Displacements float
       2.58354160e-23      -1.38777878e-17       1.38777878e-17 
       2.34065714e-23       0.00000000e+00       0.00000000e+00 
      -2.58354160e-23       1.38777878e-17      -1.38777878e-17 
      -2.34065714e-23       0.00000000e+00       0.00000000e+00 
      -1.00055574e-08       1.37356552e-08      -2.76562380e-08 
      -2.96688430e-08       1.37356539e-08      -2.76562034e-08 
       9.92577573e-09       1.37356247e-08      -2.76562089e-08 
       2.95890613e-08       1.37356260e-08      -2.76562435e-08 
      -1.00055574e-08       1.37356552e-08      -2.76562380e-08 
      -2.96688430e-08       1.37356539e-08      -2.76562034e-08 
       9.92577573e-09       1.37356247e-08      -2.76562089e-08 
       2.95890613e-08       1.37356260e-08      -2.76562435e-08 
      -1.98294550e-08       5.45915063e-08      -1.09936362e-07 
      -5.87778730e-08       5.45915010e-08      -1.09936287e-07 
       1.96697139e-08       5.45914478e-08      -1.09936309e-07 
       5.86181318e-08       5.45914531e-08      -1.09936383e-07 
      -1.98294550e-08       5.45915063e-08      -1.09936362e-07 
      -5.87778730e-08       5.45915010e-08      -1.09936287e-07 
       1.96697139e-08       5.45914478e-08      -1.09936309e-07 
       5.86181318e-08       5.45914531e-08      -1.09936383e-07 
      -2.94716909e-08       1.22040929e-07      -2.45807532e-07 
      -8.73270882e-08       1.22040918e-07      -2.45807413e-07 
       2.92318160e-08       1.22040845e-07      -2.45807460e-07 
       8.70872133e-08       1.22040857e-07      -2.45807580e-07 
      -2.94716909e-08       1.22040929e-07      -2.45807532e-07 
      -8.73270882e-08       1.22040918e-07      -2.45807413e-07 
       2.92318160e-08       1.22040845e-07      -2.45807460e-07 
       8.70872133e-08       1.22040857e-07      -2.45807580e-07 
      -3.89322636e-08       2.15557300e-07      -4.34236912e-07 
      -1.15316487e-07       2.15557280e-07      -4.34236744e-07 
       3.86120840e-08       2.15557194e-07      -4.34236826e-07 
       1.14996308e-07       2.15557214e-07      -4.34236995e-07 
      -3.89322636e-08       2.15557300e-07      -4.34236912e-07 
      -1.15316487e-07       2.15557280e-07      -4.34236744e-07 
       3.86120840e-08       2.15557194e-07      -4.34236826e-07 
       1.14996308e-07       2.15557214e-07      -4.34236995e-07 
      -4.82111713e-08       3.34613996e-07      -6.74191663e-07 
      -1.42746068e-07       3.34613965e-07      -6.74191440e-07 
       4.78105193e-08       3.34613868e-07      -6.74191567e-07 
       1.42345416e-07       3.34613899e-07      -6.74191789e-07 
      -4.82111713e-08       3.34613996e-07      -6.74191663e-07 
      -1.42746068e-07       3.34613965e-07      -6.74191440e-07 
       4.78105193e-08       3.34613868e-07      -6.74191567e-07 
       1.42345416e-07       3.34613899e-07      -6.74191789e-07 
      -5.73084125e-08       4.78684391e-07      -9.64638946e-07 
      -1.69615830e-07       4.78684347e-07      -9.64638666e-07 
       5.68271237e-08       4.78684245e-07      -9.64638844e-07 
       1.69134541e-07       4.78684289e-07      -9.64639124e-07 
      -5.73084125e-08       4.78684391e-07      -9.64638946e-07 
      -1.69615830e-07       4.78684347e-07      -9.64638666e-07 
       5.68271237e-08       4.78684245e-07      -9.64638844e-07 
       1.69134541e-07       4.78684289e-07      -9.64639124e-07 
      -6.62239852e-08       6.47241863e-07      -1.30454592e-06 
      -1.95925769e-07       6.47241804e-07      -1.30454558e-06 
       6.56618993e-08       6.47241699e-07      -1.30454582e-06 
       1.95363683e-07       6.47241758e-07      -1.30454616e-06 
      -6.62239852e-08       6.47241863e-07      -1.30454592e-06 
      -1.95925769e-07       6.47241804e-07      -1.30454558e-06 
       6.56618993e-08       6.47241699e-07      -1.30454582e-06 
       1.95363683e-07       6.47241758e-07      -1.30454616e-06 
      -7.49578877e-08       8.39759787e-07      -1.69287976e-06 
      -2.21675886e-07       8.39759712e-07      -1.69287935e-06 
       7.43148474e-08       8.39759608e-07      -1.69287966e-06 
       2.21032846e-07       8.39759683e-07      -1.69288006e-06 
      -7.49578877e-08       8.39759787e-07      -1.69287976e-06 
      -2.21675886e-07       8.39759712e-07      -1.69287935e-06 
       7.43148474e-08       8.39759608e-07      -1.69287966e-06 
       2.21032846e-07       8.39759683e-07      -1.69288006e-06 
      -8.35101188e-08       1.05571154e-06      -2.12860761e-06 
      -2.46866178e-07       1.05571145e-06      -2.12860713e-06 
       8.27859692e-08       1.05571135e-06      -2.12860751e-06 
       2.46142029e-07       1.05571144e-06      -2.12860799e-06 
      -8.35101188e-08       1.05571154e-06      -2.12860761e-06 
      -2.46866178e-07       1.05571145e-06      -2.12860713e-06 
       8.27859692e-08       1.05571135e-06      -2.12860751e-06 
       2.46142029e-07       1.05571144e-06      -2.12860799e-06 
      -9.18806760e-08       1.29457050e-06      -2.61069664e-06 
      -2.71496643e-07       1.29457038e-06      -2.61069609e-06 
       9.10752673e-08       1.29457029e-06      -2.61069655e-06 
       2.70691234e-07       1.29457040e-06      -2.61069710e-06 
      -9.18806762e-08       1.29457050e-06      -2.61069664e-06 
      -2.71496643e-07       1.29457038e-06      -2.61069609e-06 
       9.10752673e-08       1.29457029e-06      -2.61069655e-06 
       2.70691234e-07       1.29457040e-06      -2.61069710e-06 
      -1.00064348e-07       1.55581964e-06      -3.13813261e-06 
      -2.95582605e-07       1.55581951e-06      -3.13813200e-06 
       9.92067757e-08       1.55581944e-06      -3.13813255e-06 
       2.94725032e-07       1.55581957e-06      -3.13813315e-06 
      -1.00064348e-07       1.55581964e-06      -3.13813261e-06 
      -2.95582605e-07       1.55581951e-06      -3.13813200e-06 
       9.92067757e-08       1.55581944e-06      -3.13813255e-06 
       2.94725032e-07       1.55581957e-06      -3.13813315e-06 
      -1.08084205e-07       1.83897944e-06      -3.70997169e-06 
      -3.19166955e-07       1.83897929e-06      -3.70997102e-06 
       1.07174074e-07       1.83897924e-06      -3.70997166e-06 
       3.18256824e-07       1.83897940e-06      -3.70997233e-06 
      -1.08084205e-07       1.83897944e-06      -3.70997169e-06 
      -3.19166955e-07       1.83897929e-06      -3.70997102e-06 
       1.07174074e-07       1.83897924e-06      -3.70997166e-06 
       3.18256824e-07       1.83897940e-06      -3.70997233e-06 
      -1.15940241e-07       2.14357948e-06      -4.32528665e-06 
      -3.42249692e-07       2.14357930e-06      -4.32528592e-06 
       1.14977164e-07       2.14357929e-06      -4.32528665e-06 
       3.41286615e-07       2.14357946e-06      -4.32528738e-06 
      -1.15940241e-07       2.14357948e-06      -4.32528665e-06 
      -3.42249692e-07       2.14357930e-06      -4.32528592e-06 
       1.14977164e-07       2.14357929e-06      -4.32528665e-06 
       3.41286615e-07       2.14357946e-06      -4.32528738e-06 
      -1.23632454e-07       2.46914933e-06      -4.98315025e-06 
      -3.64830809e-07       2.46914913e-06      -4.98314945e-06 
       1.22616052e-07       2.46914914e-06      -4.98315028e-06 
       3.63814407e-07       2.46914934e-06      -4.98315108e-06 
      -1.23632454e-07       2.46914933e-06      -4.98315025e-06 
      -3.64830809e-07       2.46914913e-06      -4.98314945e-06 
       1.22616052e-07       2.46914914e-06      -4.98315028e-06 
       3.63814407e-07       2.46914934e-06      -4.98315108e-06 
      -1.31160839e-07       2.81521857e-06      -5.68263525e-06 
      -3.86910305e-07       2.81521835e-06      -5.68263438e-06 
       1.30090740e-07       2.81521840e-06      -5.68263531e-06 
       3.85840207e-07       2.81521862e-06      -5.68263618e-06 
      -1.31160839e-07       2.81521857e-06      -5.68263525e-06 
      -3.86910305e-07       2.81521835e-06      -5.68263438e-06 
       1.30090740e-07       2.81521840e-06      -5.68263531e-06 
       3.85840207e-07       2.81521862e-06      -5.68263618e-06 
      -1.38525391e-07       3.18131679e-06      -6.42281442e-06 
      -4.08488173e-07       3.18131654e-06      -6.42281348e-06 
       1.37401235e-07       3.18131662e-06      -6.42281452e-06 
       4.07364017e-07       3.18131688e-06      -6.42281546e-06 
      -1.38525391e-07       3.18131679e-06      -6.42281442e-06 
      -4.08488173e-07       3.18131654e-06      -6.42281348e-06 
       1.37401235e-07       3.18131662e-06      -6.42281452e-06 
       4.07364017e-07       3.18131688e-06      -6.42281546e-06 
      -1.45726107e-07       3.56697357e-06      -7.20276051e-06 
      -4.29564410e-07       3.56697329e-06      -7.20275950e-06 
       1.44547539e-07       3.56697341e-06      -7.20276065e-06 
       4.28385842e-07       3.56697369e-06      -7.20276166e-06 
      -1.45726107e-07       3.56697357e-06      -7.20276051e-06 
      -4.29564410e-07       3.56697329e-06      -7.20275950e-06 
       1.44547539e-07       3.56697341e-06      -7.20276065e-06 
       4.28385842e-07       3.56697369e-06      -7.20276166e-06 
      -1.52762982e-07       3.97171848e-06      -8.02154630e-06 
      -4.50139012e-07       3.97171818e-06      -8.02154521e-06 
       1.51529656e-07       3.97171833e-06      -8.02154647e-06 
       4.48905686e-07       3.97171864e-06      -8.02154756e-06 
      -1.52762982e-07       3.97171848e-06      -8.02154630e-06 
      -4.50139012e-07       3.97171818e-06      -8.02154521e-06 
       1.51529656e-07       3.97171833e-06      -8.02154647e-06 
       4.48905686e-07       3.97171864e-06      -8.02154756e-06 
      -1.59636013e-07       4.39508111e-06      -8.87824454e-06 
      -4.70211975e-07       4.39508077e-06      -8.87824337e-06 
       1.58347591e-07       4.39508097e-06      -8.87824475e-06 
       4.68923553e-07       4.39508131e-06      -8.87824591e-06 
      -1.59636013e-07       4.39508111e-06      -8.87824454e-06 
      -4.70211975e-07       4.39508077e-06      -8.87824337e-06 
       1.58347591e-07       4.39508097e-06      -8.87824475e-06 
       4.68923553e-07       4.39508131e-06      -8.87824591e-06 
      -1.66345195e-07       4.83659103e-06      -9.77192800e-06 
      -4.89783294e-07       4.83659067e-06      -9.77192675e-06 
       1.65001349e-07       4.83659090e-06      -9.77192825e-06 
       4.88439448e-07       4.83659127e-06      -9.77192949e-06 
      -1.66345195e-07       4.83659103e-06      -9.77192800e-06 
      -4.89783294e-07       4.83659067e-06      -9.77192675e-06 
       1.65001349e-07       4.83659090e-06      -9.77192825e-06 
       4.88439448e-07       4.83659127e-06      -9.77192949e-06 
      -1.72889023e-07       5.29578724e-06      -1.07016870e-05 
      -5.08871642e-07       5.29578685e-06      -1.07016857e-05 
       1.71509924e-07       5.29578713e-06      -1.07016873e-05 
       5.07492542e-07       5.29578752e-06      -1.07016886e-05 
      -1.72889023e-07       5.29578724e-06      -1.07016870e-05 
      -5.08871642e-07       5.29578685e-06      -1.07016857e-05 
       1.71509924e-07       5.29578713e-06      -1.07016873e-05 
       5.07492542e-07       5.29578752e-06      -1.07016886e-05 
      -1.79286334e-07       5.77224582e-06      -1.16666811e-05 
      -5.27515626e-07       5.77224540e-06      -1.16666797e-05 
       1.77871510e-07       5.77224573e-06      -1.16666814e-05 
       5.26100802e-07       5.77224615e-06      -1.16666828e-05 
      -1.79286334e-07       5.77224582e-06      -1.16666811e-05 
      -5.27515626e-07       5.77224540e-06      -1.16666797e-05 
       1.77871510e-07       5.77224573e-06      -1.16666814e-05 
       5.26100802e-07       5.77224615e-06      -1.16666828e-05 
      -1.85537123e-07       6.26555198e-06      -1.26660867e-05 
      -5.45715242e-07       6.26555153e-06      -1.26660852e-05 
       1.84086115e-07       6.26555191e-06      -1.26660871e-05 
       5.44264234e-07       6.26555236e-06      -1.26660885e-05 
      -1.85537123e-07       6.26555198e-06      -1.26660867e-05 
      -5.45715242e-07       6.26555153e-06      -1.26660852e-05 
       1.84086115e-07       6.26555191e-06      -1.26660871e-05 
       5.44264234e-07       6.26555236e-06      -1.26660885e-05 
      -1.91641385e-07       6.77529094e-06      -1.36990803e-05 
      -5.63470484e-07       6.77529046e-06      -1.36990788e-05 
       1.90153742e-07       6.77529089e-06      -1.36990807e-05 
       5.61982842e-07       6.77529137e-06      -1.36990823e-05 
      -1.91641385e-07       6.77529094e-06      -1.36990803e-05 
      -5.63470484e-07       6.77529046e-06      -1.36990788e-05 
       1.90153742e-07       6.77529089e-06      -1.36990807e-05 
       5.61982842e-07       6.77529137e-06      -1.36990823e-05 
      -1.97599112e-07       7.30104791e-06      -1.47648383e-05 
      -5.80781347e-07       7.30104739e-06      -1.47648367e-05 
       1.96074396e-07       7.30104788e-06      -1.47648388e-05 
       5.79256630e-07       7.30104839e-06      -1.47648404e-05 
      -1.97599112e-07       7.30104791e-06      -1.47648383e-05 
      -5.80781347e-07       7.30104739e-06      -1.47648367e-05 
       1.96074396e-07       7.30104788e-06      -1.47648388e-05 
       5.79256630e-07       7.30104839e-06      -1.47648404e-05 
      -2.03410302e-07       7.84240810e-06      -1.58625373e-05 
      -5.97647825e-07       7.84240756e-06      -1.58625357e-05 
       2.01848084e-07       7.84240809e-06      -1.58625379e-05 
       5.96085608e-07       7.84240863e-06      -1.58625396e-05 
      -2.03410302e-07       7.84240810e-06      -1.58625373e-05 
      -5.97647825e-07       7.84240756e-06      -1.58625357e-05 
       2.01848084e-07       7.84240809e-06      -1.58625379e-05 
       5.96085608e-07       7.84240863e-06      -1.58625396e-05 
      -2.09074947e-07       8.39895673e-06      -1.69913538e-05 
      -6.14069913e-07       8.39895615e-06      -1.69913520e-05 
       2.07474811e-07       8.39895674e-06      -1.69913544e-05 
       6.12469778e-07       8.39895731e-06      -1.69913561e-05 
      -2.09074947e-07       8.39895673e-06      -1.69913538e-05 
      -6.14069913e-07       8.39895615e-06      -1.69913520e-05 
       2.07474811e-07       8.39895674e-06      -1.69913544e-05 
       6.12469778e-07       8.39895731e-06      -1.69913561e-05 
      -2.14593040e-07       8.97027900e-06      -1.81504641e-05 
      -6.30047603e-07       8.97027840e-06      -1.81504623e-05 
       2.12954585e-07       8.97027904e-06      -1.81504647e-05 
       6.28409148e-07       8.97027964e-06      -1.81504665e-05 
      -2.14593040e-07       8.97027900e-06      -1.81504641e-05 
      -6.30047603e-07       8.97027840e-06      -1.81504623e-05 
       2.12954585e-07       8.97027904e-06      -1.81504647e-05 
       6.28409148e-07       8.97027964e-06      -1.81504665e-05 
      -2.19964581e-07       9.55596015e-06      -1.93390447e-05 
      -6.45580895e-07       9.55595952e-06      -1.93390428e-05 
       2.18287407e-07       9.55596020e-06      -1.93390454e-05 
       6.43903721e-07       9.55596083e-06      -1.93390473e-05 
      -2.19964581e-07       9.55596015e-06      -1.93390447e-05 
      -6.45580895e-07       9.55595952e-06      -1.93390428e-05 
       2.18287407e-07       9.55596020e-06      -1.93390454e-05 
       6.43903721e-07       9.55596083e-06      -1.93390473e-05 
      -2.25189559e-07       1.01555854e-05      -2.05562722e-05 
      -6.60669778e-07       1.01555847e-05      -2.05562703e-05 
       2.23473284e-07       1.01555854e-05      -2.05562730e-05 
       6.58953503e-07       1.01555861e-05      -2.05562749e-05 
      -2.25189559e-07       1.01555854e-05      -2.05562722e-05 
      -6.60669778e-07       1.01555847e-05      -2.05562703e-05 
       2.23473285e-07       1.01555854e-05      -2.05562730e-05 
       6.58953504e-07       1.01555861e-05      -2.05562749e-05 
      -2.30269651e-07       1.07687492e-05      -2.18013401e-05 
      -6.75335895e-07       1.07687485e-05      -2.18013381e-05 
       2.28527523e-07       1.07687493e-05      -2.18013409e-05 
       6.73593766e-07       1.07687500e-05      -2.18013429e-05 
      -2.30269651e-07       1.07687492e-05      -2.18013401e-05 
      -6.75335895e-07       1.07687485e-05      -2.18013381e-05 
       2.28527523e-07       1.07687493e-05      -2.18013409e-05 
       6.73593766e-07       1.07687500e-05      -2.18013429e-05 
      -2.35220539e-07       1.13950829e-05      -2.30735109e-05 
      -6.89614686e-07       1.13950822e-05      -2.30735089e-05 
       2.33452099e-07       1.13950831e-05      -2.30735118e-05 
       6.87846246e-07       1.13950838e-05      -2.30735139e-05 
      -2.35220539e-07       1.13950829e-05      -2.30735109e-05 
      -6.89614686e-07       1.13950822e-05      -2.30735089e-05 
       2.33452099e-07       1.13950831e-05      -2.30735118e-05 
       6.87846246e-07       1.13950838e-05      -2.30735139e-05 
      -2.40042214e-07       1.20342272e-05      -2.43720649e-05 
      -7.03506146e-07       1.20342265e-05      -2.43720627e-05 
       2.38247020e-07       1.20342274e-05      -2.43720658e-05 
       7.01710952e-07       1.20342281e-05      -2.43720679e-05 
      -2.40042214e-07       1.20342272e-05      -2.43720649e-05 
      -7.03506146e-07       1.20342265e-05      -2.43720627e-05 
       2.38247020e-07       1.20342274e-05      -2.43720658e-05 
       7.01710952e-07       1.20342281e-05      -2.43720679e-05 
      -2.44734673e-07       1.26858225e-05      -2.56962818e-05 
      -7.17010270e-07       1.26858217e-05      -2.56962796e-05 
       2.42912290e-07       1.26858227e-05      -2.56962828e-05 
       7.15187888e-07       1.26858235e-05      -2.56962850e-05 
      -2.44734673e-07       1.26858225e-05      -2.56962818e-05 
      -7.17010270e-07       1.26858217e-05      -2.56962796e-05 
       2.42912290e-07       1.26858227e-05      -2.56962828e-05 
       7.15187888e-07       1.26858235e-05      -2.56962850e-05 
      -2.49297906e-07       1.33495094e-05      -2.70454419e-05 
      -7.30127050e-07       1.33495086e-05      -2.70454397e-05 
       2.47447918e-07       1.33495096e-05      -2.70454430e-05 
       7.28277062e-07       1.33495104e-05      -2.70454452e-05 
      -2.49297906e-07       1.33495094e-05      -2.70454419e-05 
      -7.30127050e-07       1.33495086e-05      -2.70454397e-05 
       2.47447918e-07       1.33495096e-05      -2.70454430e-05 
       7.28277062e-07       1.33495104e-05      -2.70454452e-05 
      -2.53731910e-07       1.40249284e-05      -2.84188251e-05 
      -7.42856480e-07       1.40249276e-05      -2.84188228e-05 
       2.51853908e-07       1.40249287e-05      -2.84188263e-05 
       7.40978478e-07       1.40249295e-05      -2.84188286e-05 
      -2.53731910e-07       1.40249284e-05      -2.84188251e-05 
      -7.42856480e-07       1.40249276e-05      -2.84188228e-05 
       2.51853908e-07       1.40249287e-05      -2.84188263e-05 
       7.40978478e-07       1.40249295e-05      -2.84188286e-05 
      -2.58036678e-07       1.47117201e-05      -2.98157115e-05 
      -7.55198556e-07       1.47117193e-05      -2.98157091e-05 
       2.56130265e-07       1.47117204e-05      -2.98157127e-05 
       7.53292143e-07       1.47117212e-05      -2.98157151e-05 
      -2.58036678e-07       1.47117201e-05      -2.98157115e-05 
      -7.55198556e-07       1.47117193e-05      -2.98157091e-05 
       2.56130265e-07       1.47117204e-05      -2.98157127e-05 
       7.53292143e-07       1.47117212e-05      -2.98157151e-05 
      -2.62212204e-07       1.54095250e-05      -3.12353811e-05 
      -7.67153269e-07       1.54095241e-05      -3.12353787e-05 
       2.60277000e-07       1.54095253e-05      -3.12353823e-05 
       7.65218065e-07       1.54095262e-05      -3.12353848e-05 
      -2.62212204e-07       1.54095250e-05      -3.12353811e-05 
      -7.67153269e-07       1.54095241e-05      -3.12353787e-05 