# vtk DataFile Version 2.0
./output/onsasExample_BladeCantileverBeamNoPitch_windVel3DDynamic 3D/onsasExample_BladeCantileverBeamNoPitch_windVel3DDynamic 3D_0283.vtk
ASCII
DATASET UNSTRUCTURED_GRID

POINTS 800 float
      -1.308688e-23      -7.180703e-02      -7.180703e-02 
      -1.453271e-23       7.180703e-02      -7.180703e-02 
       1.308688e-23       7.180703e-02       7.180703e-02 
       1.453271e-23      -7.180703e-02       7.180703e-02 
       2.000000e-01      -7.180702e-02      -7.180706e-02 
       2.000000e-01       7.180705e-02      -7.180706e-02 
       2.000000e-01       7.180705e-02       7.180701e-02 
       2.000000e-01      -7.180702e-02       7.180701e-02 
       2.000000e-01      -7.180702e-02      -7.180706e-02 
       2.000000e-01       7.180705e-02      -7.180706e-02 
       2.000000e-01       7.180705e-02       7.180701e-02 
       2.000000e-01      -7.180702e-02       7.180701e-02 
       4.000000e-01      -7.180698e-02      -7.180713e-02 
       3.999999e-01       7.180709e-02      -7.180713e-02 
       4.000000e-01       7.180709e-02       7.180694e-02 
       4.000001e-01      -7.180698e-02       7.180694e-02 
       4.000000e-01      -7.180698e-02      -7.180713e-02 
       3.999999e-01       7.180709e-02      -7.180713e-02 
       4.000000e-01       7.180709e-02       7.180694e-02 
       4.000001e-01      -7.180698e-02       7.180694e-02 
       6.000000e-01      -7.180691e-02      -7.180725e-02 
       5.999999e-01       7.180715e-02      -7.180725e-02 
       6.000000e-01       7.180715e-02       7.180682e-02 
       6.000001e-01      -7.180691e-02       7.180682e-02 
       6.000000e-01      -7.180691e-02      -7.180725e-02 
       5.999999e-01       7.180715e-02      -7.180725e-02 
       6.000000e-01       7.180715e-02       7.180682e-02 
       6.000001e-01      -7.180691e-02       7.180682e-02 
       8.000000e-01      -7.180682e-02      -7.180741e-02 
       7.999999e-01       7.180725e-02      -7.180741e-02 
       8.000000e-01       7.180725e-02       7.180666e-02 
       8.000001e-01      -7.180682e-02       7.180666e-02 
       8.000000e-01      -7.180682e-02      -7.180741e-02 
       7.999999e-01       7.180725e-02      -7.180741e-02 
       8.000000e-01       7.180725e-02       7.180666e-02 
       8.000001e-01      -7.180682e-02       7.180666e-02 
       1.000000e+00      -7.180670e-02      -7.180762e-02 
       9.999999e-01       7.180737e-02      -7.180762e-02 
       1.000000e+00       7.180737e-02       7.180645e-02 
       1.000000e+00      -7.180670e-02       7.180645e-02 
       1.000000e+00      -7.180670e-02      -7.180762e-02 
       9.999999e-01       7.180737e-02      -7.180762e-02 
       1.000000e+00       7.180737e-02       7.180645e-02 
       1.000000e+00      -7.180670e-02       7.180645e-02 
       1.200000e+00      -7.180656e-02      -7.180787e-02 
       1.200000e+00       7.180751e-02      -7.180787e-02 
       1.200000e+00       7.180751e-02       7.180620e-02 
       1.200000e+00      -7.180656e-02       7.180620e-02 
       1.200000e+00      -7.180656e-02      -7.180787e-02 
       1.200000e+00       7.180751e-02      -7.180787e-02 
       1.200000e+00       7.180751e-02       7.180620e-02 
       1.200000e+00      -7.180656e-02       7.180620e-02 
       1.400000e+00      -7.180639e-02      -7.180816e-02 
       1.400000e+00       7.180768e-02      -7.180816e-02 
       1.400000e+00       7.180768e-02       7.180590e-02 
       1.400000e+00      -7.180639e-02       7.180590e-02 
       1.400000e+00      -7.180639e-02      -7.180816e-02 
       1.400000e+00       7.180768e-02      -7.180816e-02 
       1.400000e+00       7.180768e-02       7.180590e-02 
       1.400000e+00      -7.180639e-02       7.180590e-02 
       1.600000e+00      -7.180620e-02      -7.180850e-02 
       1.600000e+00       7.180787e-02      -7.180850e-02 
       1.600000e+00       7.180787e-02       7.180557e-02 
       1.600000e+00      -7.180620e-02       7.180557e-02 
       1.600000e+00      -7.180620e-02      -7.180850e-02 
       1.600000e+00       7.180787e-02      -7.180850e-02 
       1.600000e+00       7.180787e-02       7.180557e-02 
       1.600000e+00      -7.180620e-02       7.180557e-02 
       1.800000e+00      -7.180599e-02      -7.180888e-02 
       1.800000e+00       7.180808e-02      -7.180888e-02 
       1.800000e+00       7.180808e-02       7.180519e-02 
       1.800000e+00      -7.180599e-02       7.180519e-02 
       1.800000e+00      -7.180599e-02      -7.180888e-02 
       1.800000e+00       7.180808e-02      -7.180888e-02 
       1.800000e+00       7.180808e-02       7.180519e-02 
       1.800000e+00      -7.180599e-02       7.180519e-02 
       2.000000e+00      -7.180575e-02      -7.180929e-02 
       2.000000e+00       7.180832e-02      -7.180929e-02 
       2.000000e+00       7.180832e-02       7.180477e-02 
       2.000000e+00      -7.180575e-02       7.180477e-02 
       2.000000e+00      -7.180575e-02      -7.180929e-02 
       2.000000e+00       7.180832e-02      -7.180929e-02 
       2.000000e+00       7.180832e-02       7.180477e-02 
       2.000000e+00      -7.180575e-02       7.180477e-02 
       2.200000e+00      -7.180549e-02      -7.180975e-02 
       2.200000e+00       7.180858e-02      -7.180975e-02 
       2.200000e+00       7.180858e-02       7.180432e-02 
       2.200000e+00      -7.180549e-02       7.180432e-02 
       2.200000e+00      -7.180549e-02      -7.180975e-02 
       2.200000e+00       7.180858e-02      -7.180975e-02 
       2.200000e+00       7.180858e-02       7.180432e-02 
       2.200000e+00      -7.180549e-02       7.180432e-02 
       2.400000e+00      -7.180521e-02      -7.181024e-02 
       2.400000e+00       7.180886e-02      -7.181024e-02 
       2.400000e+00       7.180886e-02       7.180383e-02 
       2.400000e+00      -7.180521e-02       7.180383e-02 
       2.400000e+00      -7.180521e-02      -7.181024e-02 
       2.400000e+00       7.180886e-02      -7.181024e-02 
       2.400000e+00       7.180886e-02       7.180383e-02 
       2.400000e+00      -7.180521e-02       7.180383e-02 
       2.600000e+00      -7.180491e-02      -7.181077e-02 
       2.600000e+00       7.180916e-02      -7.181077e-02 
       2.600000e+00       7.180916e-02       7.180330e-02 
       2.600000e+00      -7.180491e-02       7.180330e-02 
       2.600000e+00      -7.180491e-02      -7.181077e-02 
       2.600000e+00       7.180916e-02      -7.181077e-02 
       2.600000e+00       7.180916e-02       7.180330e-02 
       2.600000e+00      -7.180491e-02       7.180330e-02 
       2.800000e+00      -7.180459e-02      -7.181134e-02 
       2.800000e+00       7.180948e-02      -7.181134e-02 
       2.800000e+00       7.180948e-02       7.180273e-02 
       2.800000e+00      -7.180459e-02       7.180273e-02 
       2.800000e+00      -7.180459e-02      -7.181134e-02 
       2.800000e+00       7.180948e-02      -7.181134e-02 
       2.800000e+00       7.180948e-02       7.180273e-02 
       2.800000e+00      -7.180459e-02       7.180273e-02 
       3.000000e+00      -7.180424e-02      -7.181194e-02 
       3.000000e+00       7.180982e-02      -7.181194e-02 
       3.000000e+00       7.180982e-02       7.180213e-02 
       3.000000e+00      -7.180424e-02       7.180213e-02 
       3.000000e+00      -7.180424e-02      -7.181194e-02 
       3.000000e+00       7.180982e-02      -7.181194e-02 
       3.000000e+00       7.180982e-02       7.180213e-02 
       3.000000e+00      -7.180424e-02       7.180213e-02 
       3.200000e+00      -7.180388e-02      -7.181257e-02 
       3.200000e+00       7.181019e-02      -7.181257e-02 
       3.200000e+00       7.181019e-02       7.180149e-02 
       3.200000e+00      -7.180388e-02       7.180149e-02 
       3.200000e+00      -7.180388e-02      -7.181257e-02 
       3.200000e+00       7.181019e-02      -7.181257e-02 
       3.200000e+00       7.181019e-02       7.180149e-02 
       3.200000e+00      -7.180388e-02       7.180149e-02 
       3.400000e+00      -7.180350e-02      -7.181324e-02 
       3.400000e+00       7.181057e-02      -7.181324e-02 
       3.400000e+00       7.181057e-02       7.180082e-02 
       3.400000e+00      -7.180350e-02       7.180082e-02 
       3.400000e+00      -7.180350e-02      -7.181324e-02 
       3.400000e+00       7.181057e-02      -7.181324e-02 
       3.400000e+00       7.181057e-02       7.180082e-02 
       3.400000e+00      -7.180350e-02       7.180082e-02 
       3.600000e+00      -7.180310e-02      -7.181395e-02 
       3.600000e+00       7.181097e-02      -7.181395e-02 
       3.600000e+00       7.181097e-02       7.180012e-02 
       3.600000e+00      -7.180310e-02       7.180012e-02 
       3.600000e+00      -7.180310e-02      -7.181395e-02 
       3.600000e+00       7.181097e-02      -7.181395e-02 
       3.600000e+00       7.181097e-02       7.180012e-02 
       3.600000e+00      -7.180310e-02       7.180012e-02 
       3.800000e+00      -7.180268e-02      -7.181468e-02 
       3.800000e+00       7.181139e-02      -7.181468e-02 
       3.800000e+00       7.181139e-02       7.179938e-02 
       3.800000e+00      -7.180268e-02       7.179938e-02 
       3.800000e+00      -7.180268e-02      -7.181468e-02 
       3.800000e+00       7.181139e-02      -7.181468e-02 
       3.800000e+00       7.181139e-02       7.179938e-02 
       3.800000e+00      -7.180268e-02       7.179938e-02 
       4.000000e+00      -7.180224e-02      -7.181545e-02 
       4.000000e+00       7.181183e-02      -7.181545e-02 
       4.000000e+00       7.181183e-02       7.179862e-02 
       4.000000e+00      -7.180224e-02       7.179862e-02 
       4.000000e+00      -7.180224e-02      -7.181545e-02 
       4.000000e+00       7.181183e-02      -7.181545e-02 
       4.000000e+00       7.181183e-02       7.179862e-02 
       4.000000e+00      -7.180224e-02       7.179862e-02 
       4.200000e+00      -7.180179e-02      -7.181624e-02 
[...]
POINT_DATA       800 
VECTORS Displacements float
      -1.30868816e-23      -1.38777878e-17      -1.38777878e-17 
      -1.45327115e-23       0.00000000e+00      -1.38777878e-17 
       1.30868816e-23       1.38777878e-17       1.38777878e-17 
       1.45327115e-23       0.00000000e+00       1.38777878e-17 
      -7.48539336e-09       1.36280596e-08      -2.40337838e-08 
      -2.69941250e-08       1.36280583e-08      -2.40337577e-08 
       7.40669523e-09       1.36280369e-08      -2.40337618e-08 
       2.69154268e-08       1.36280382e-08      -2.40337879e-08 
      -7.48539336e-09       1.36280596e-08      -2.40337838e-08 
      -2.69941250e-08       1.36280583e-08      -2.40337577e-08 
       7.40669523e-09       1.36280369e-08      -2.40337618e-08 
       2.69154268e-08       1.36280382e-08      -2.40337879e-08 
      -1.48148705e-08       5.41609254e-08      -9.54941812e-08 
      -5.34539581e-08       5.41609202e-08      -9.54941245e-08 
       1.46573325e-08       5.41608818e-08      -9.54941407e-08 
       5.32964201e-08       5.41608871e-08      -9.54941974e-08 
      -1.48148705e-08       5.41609254e-08      -9.54941812e-08 
      -5.34539581e-08       5.41609202e-08      -9.54941245e-08 
       1.46573325e-08       5.41608818e-08      -9.54941407e-08 
       5.32964201e-08       5.41608871e-08      -9.54941974e-08 
      -2.19884301e-08       1.21071664e-07      -2.13419797e-07 
      -7.93794980e-08       1.21071652e-07      -2.13419705e-07 
       2.17519135e-08       1.21071601e-07      -2.13419741e-07 
       7.91429814e-08       1.21071612e-07      -2.13419832e-07 
      -2.19884301e-08       1.21071664e-07      -2.13419797e-07 
      -7.93794980e-08       1.21071652e-07      -2.13419705e-07 
       2.17519135e-08       1.21071601e-07      -2.13419741e-07 
       7.91429814e-08       1.21071612e-07      -2.13419832e-07 
      -2.90060708e-08       2.13833340e-07      -3.76849235e-07 
      -1.04770743e-07       2.13833320e-07      -3.76849104e-07 
       2.86904394e-08       2.13833260e-07      -3.76849166e-07 
       1.04455112e-07       2.13833280e-07      -3.76849297e-07 
      -2.90060708e-08       2.13833340e-07      -3.76849235e-07 
      -1.04770743e-07       2.13833320e-07      -3.76849104e-07 
       2.86904394e-08       2.13833260e-07      -3.76849166e-07 
       1.04455112e-07       2.13833280e-07      -3.76849297e-07 
      -3.58677906e-08       3.31919021e-07      -5.84821100e-07 
      -1.29627692e-07       3.31918991e-07      -5.84820927e-07 
       3.54729117e-08       3.31918926e-07      -5.84821022e-07 
       1.29232813e-07       3.31918956e-07      -5.84821194e-07 
      -3.58677906e-08       3.31919021e-07      -5.84821100e-07 
      -1.29627692e-07       3.31918991e-07      -5.84820927e-07 
       3.54729117e-08       3.31918926e-07      -5.84821022e-07 
       1.29232813e-07       3.31918956e-07      -5.84821194e-07 
      -4.25735889e-08       4.74801773e-07      -8.36373996e-07 
      -1.53950344e-07       4.74801730e-07      -8.36373777e-07 
       4.20993318e-08       4.74801663e-07      -8.36373911e-07 
       1.53476087e-07       4.74801706e-07      -8.36374130e-07 
      -4.25735889e-08       4.74801773e-07      -8.36373996e-07 
      -1.53950344e-07       4.74801730e-07      -8.36373777e-07 
       4.20993318e-08       4.74801663e-07      -8.36373911e-07 
       1.53476087e-07       4.74801706e-07      -8.36374130e-07 
      -4.91234637e-08       6.41954661e-07      -1.13054653e-06 
      -1.77738696e-07       6.41954603e-07      -1.13054626e-06 
       4.85697011e-08       6.41954538e-07      -1.13054644e-06 
       1.77184934e-07       6.41954596e-07      -1.13054671e-06 
      -4.91234637e-08       6.41954661e-07      -1.13054653e-06 
      -1.77738696e-07       6.41954603e-07      -1.13054626e-06 
       4.85697011e-08       6.41954538e-07      -1.13054644e-06 
       1.77184934e-07       6.41954596e-07      -1.13054671e-06 
      -5.55174140e-08       8.32850752e-07      -1.46637730e-06 
      -2.00992749e-07       8.32850678e-07      -1.46637698e-06 
       5.48840211e-08       8.32850618e-07      -1.46637721e-06 
       2.00359356e-07       8.32850691e-07      -1.46637753e-06 
      -5.55174140e-08       8.32850752e-07      -1.46637730e-06 
      -2.00992749e-07       8.32850678e-07      -1.46637698e-06 
       5.48840211e-08       8.32850618e-07      -1.46637721e-06 
       2.00359356e-07       8.32850691e-07      -1.46637753e-06 
      -6.17554381e-08       1.04696311e-06      -1.84290492e-06 
      -2.23712499e-07       1.04696302e-06      -1.84290454e-06 
       6.10422934e-08       1.04696297e-06      -1.84290483e-06 
       2.22999355e-07       1.04696306e-06      -1.84290520e-06 
      -6.17554381e-08       1.04696311e-06      -1.84290492e-06 
      -2.23712499e-07       1.04696302e-06      -1.84290454e-06 
       6.10422934e-08       1.04696297e-06      -1.84290483e-06 
       2.22999355e-07       1.04696306e-06      -1.84290520e-06 
      -6.78375347e-08       1.28376481e-06      -2.25916798e-06 
      -2.45897947e-07       1.28376470e-06      -2.25916755e-06 
       6.70445193e-08       1.28376465e-06      -2.25916789e-06 
       2.45104931e-07       1.28376476e-06      -2.25916832e-06 
      -6.78375345e-08       1.28376481e-06      -2.25916798e-06 
      -2.45897946e-07       1.28376470e-06      -2.25916755e-06 
       6.70445193e-08       1.28376465e-06      -2.25916789e-06 
       2.45104931e-07       1.28376476e-06      -2.25916832e-06 
      -7.37597099e-08       1.54273804e-06      -2.71422337e-06 
      -2.67564965e-07       1.54273791e-06      -2.71422289e-06 
       7.29145140e-08       1.54273789e-06      -2.71422330e-06 
       2.66719769e-07       1.54273802e-06      -2.71422378e-06 
      -7.37597099e-08       1.54273804e-06      -2.71422337e-06 
      -2.67564965e-07       1.54273791e-06      -2.71422289e-06 
       7.29145140e-08       1.54273789e-06      -2.71422330e-06 
       2.66719769e-07       1.54273802e-06      -2.71422378e-06 
      -7.95461861e-08       1.82340255e-06      -3.20720286e-06 
      -2.88758309e-07       1.82340239e-06      -3.20720233e-06 
       7.86485010e-08       1.82340240e-06      -3.20720280e-06 
       2.87860624e-07       1.82340255e-06      -3.20720333e-06 
      -7.95461861e-08       1.82340255e-06      -3.20720286e-06 
      -2.88758309e-07       1.82340239e-06      -3.20720233e-06 
       7.86485010e-08       1.82340240e-06      -3.20720280e-06 
       2.87860624e-07       1.82340255e-06      -3.20720333e-06 
      -8.51969610e-08       2.12528764e-06      -3.73725740e-06 
      -3.09477976e-07       2.12528747e-06      -3.73725682e-06 
       8.42464831e-08       2.12528750e-06      -3.73725736e-06 
       3.08527498e-07       2.12528767e-06      -3.73725794e-06 
      -8.51969610e-08       2.12528764e-06      -3.73725740e-06 
      -3.09477976e-07       2.12528747e-06      -3.73725682e-06 
       8.42464831e-08       2.12528750e-06      -3.73725736e-06 
       3.08527498e-07       2.12528767e-06      -3.73725794e-06 
      -9.07120299e-08       2.44792266e-06      -4.30353792e-06 
      -3.29723962e-07       2.44792247e-06      -4.30353728e-06 
       8.97084642e-08       2.44792253e-06      -4.30353790e-06 
       3.28720396e-07       2.44792272e-06      -4.30353854e-06 
      -9.07120299e-08       2.44792266e-06      -4.30353792e-06 
      -3.29723962e-07       2.44792247e-06      -4.30353728e-06 
       8.97084642e-08       2.44792253e-06      -4.30353790e-06 
       3.28720396e-07       2.44792272e-06      -4.30353854e-06 
      -9.60913900e-08       2.79083694e-06      -4.90519538e-06 
      -3.49496263e-07       2.79083671e-06      -4.90519468e-06 
       9.50344470e-08       2.79083680e-06      -4.90519537e-06 
       3.48439320e-07       2.79083703e-06      -4.90519607e-06 
      -9.60913900e-08       2.79083694e-06      -4.90519538e-06 
      -3.49496263e-07       2.79083671e-06      -4.90519468e-06 
       9.50344470e-08       2.79083680e-06      -4.90519537e-06 
       3.48439320e-07       2.79083703e-06      -4.90519607e-06 
      -1.01335038e-07       3.15355979e-06      -5.54138071e-06 
      -3.68794877e-07       3.15355954e-06      -5.54137996e-06 
       1.00224435e-07       3.15355966e-06      -5.54138072e-06 
       3.67684274e-07       3.15355991e-06      -5.54138147e-06 
      -1.01335038e-07       3.15355979e-06      -5.54138071e-06 
      -3.68794877e-07       3.15355954e-06      -5.54137996e-06 
       1.00224435e-07       3.15355966e-06      -5.54138072e-06 
       3.67684274e-07       3.15355991e-06      -5.54138147e-06 
      -1.06442970e-07       3.53562055e-06      -6.21124486e-06 
      -3.87619799e-07       3.53562027e-06      -6.21124405e-06 
       1.05278433e-07       3.53562043e-06      -6.21124489e-06 
       3.86455262e-07       3.53562070e-06      -6.21124570e-06 
      -1.06442970e-07       3.53562055e-06      -6.21124486e-06 
      -3.87619799e-07       3.53562027e-06      -6.21124405e-06 
       1.05278433e-07       3.53562043e-06      -6.21124489e-06 
       3.86455262e-07       3.53562070e-06      -6.21124570e-06 
      -1.11415182e-07       3.93654854e-06      -6.91393877e-06 
      -4.05971026e-07       3.93654824e-06      -6.91393790e-06 
       1.10196443e-07       3.93654843e-06      -6.91393883e-06 
       4.04752287e-07       3.93654873e-06      -6.91393970e-06 
      -1.11415182e-07       3.93654854e-06      -6.91393877e-06 
      -4.05971026e-07       3.93654824e-06      -6.91393790e-06 
       1.10196443e-07       3.93654843e-06      -6.91393883e-06 
       4.04752287e-07       3.93654873e-06      -6.91393970e-06 
      -1.16251672e-07       4.35587310e-06      -7.64861339e-06 
      -4.23848555e-07       4.35587277e-06      -7.64861246e-06 
       1.14978469e-07       4.35587300e-06      -7.64861347e-06 
       4.22575352e-07       4.35587333e-06      -7.64861440e-06 
      -1.16251672e-07       4.35587310e-06      -7.64861339e-06 
      -4.23848555e-07       4.35587277e-06      -7.64861246e-06 
       1.14978469e-07       4.35587300e-06      -7.64861347e-06 
       4.22575352e-07       4.35587333e-06      -7.64861440e-06 
      -1.20952437e-07       4.79312356e-06      -8.41441965e-06 
      -4.41252383e-07       4.79312320e-06      -8.41441866e-06 
       1.19624515e-07       4.79312346e-06      -8.41441976e-06 
       4.39924461e-07       4.79312381e-06      -8.41442075e-06 
      -1.20952437e-07       4.79312356e-06      -8.41441965e-06 
      -4.41252383e-07       4.79312320e-06      -8.41441866e-06 
       1.19624515e-07       4.79312346e-06      -8.41441976e-06 
       4.39924461e-07       4.79312381e-06      -8.41442075e-06 
      -1.25518216e-07       5.24783865e-06      -9.21052789e-06 
      -4.58203561e-07       5.24783827e-06      -9.21052685e-06 
       1.24154719e-07       5.24783857e-06      -9.21052803e-06 
       4.56840065e-07       5.24783896e-06      -9.21052907e-06 
      -1.25518216e-07       5.24783865e-06      -9.21052789e-06 
      -4.58203561e-07       5.24783827e-06      -9.21052685e-06 
       1.24154719e-07       5.24783857e-06      -9.21052803e-06 
       4.56840065e-07       5.24783896e-06      -9.21052907e-06 
      -1.29968088e-07       5.71959487e-06      -1.00361828e-05 
      -4.74741475e-07       5.71959445e-06      -1.00361817e-05 
       1.28568654e-07       5.71959480e-06      -1.00361830e-05 
       4.73342043e-07       5.71959521e-06      -1.00361841e-05 
      -1.29968088e-07       5.71959487e-06      -1.00361828e-05 
      -4.74741475e-07       5.71959445e-06      -1.00361817e-05 
       1.28568654e-07       5.71959480e-06      -1.00361830e-05 
       4.73342043e-07       5.71959521e-06      -1.00361841e-05 
      -1.34302045e-07       6.20797809e-06      -1.08906471e-05 
      -4.90866118e-07       6.20797765e-06      -1.08906459e-05 
       1.32866326e-07       6.20797804e-06      -1.08906473e-05 
       4.89430399e-07       6.20797848e-06      -1.08906484e-05 
      -1.34302045e-07       6.20797809e-06      -1.08906471e-05 
      -4.90866118e-07       6.20797765e-06      -1.08906459e-05 
       1.32866326e-07       6.20797804e-06      -1.08906473e-05 
       4.89430399e-07       6.20797848e-06      -1.08906484e-05 
      -1.38520087e-07       6.71257423e-06      -1.17731831e-05 
      -5.06577489e-07       6.71257376e-06      -1.17731819e-05 
       1.37047734e-07       6.71257419e-06      -1.17731833e-05 
       5.05105136e-07       6.71257466e-06      -1.17731845e-05 
      -1.38520087e-07       6.71257423e-06      -1.17731831e-05 
      -5.06577489e-07       6.71257376e-06      -1.17731819e-05 
       1.37047734e-07       6.71257419e-06      -1.17731833e-05 
       5.05105136e-07       6.71257466e-06      -1.17731845e-05 
      -1.42622206e-07       7.23296916e-06      -1.26830535e-05 
      -5.21875581e-07       7.23296866e-06      -1.26830523e-05 
       1.41112887e-07       7.23296914e-06      -1.26830538e-05 
       5.20366261e-07       7.23296964e-06      -1.26830551e-05 
      -1.42622206e-07       7.23296916e-06      -1.26830535e-05 
      -5.21875581e-07       7.23296866e-06      -1.26830523e-05 
       1.41112887e-07       7.23296914e-06      -1.26830538e-05 
       5.20366261e-07       7.23296964e-06      -1.26830551e-05 
      -1.46608399e-07       7.76874879e-06      -1.36195209e-05 
      -5.36760390e-07       7.76874826e-06      -1.36195196e-05 
       1.45061787e-07       7.76874879e-06      -1.36195212e-05 
       5.35213777e-07       7.76874931e-06      -1.36195225e-05 
      -1.46608399e-07       7.76874879e-06      -1.36195209e-05 
      -5.36760390e-07       7.76874826e-06      -1.36195196e-05 
       1.45061787e-07       7.76874879e-06      -1.36195212e-05 
       5.35213777e-07       7.76874931e-06      -1.36195225e-05 
      -1.50478662e-07       8.31949901e-06      -1.45818478e-05 
      -5.51231912e-07       8.31949845e-06      -1.45818464e-05 
       1.48894440e-07       8.31949902e-06      -1.45818481e-05 
       5.49647688e-07       8.31949958e-06      -1.45818495e-05 
      -1.50478662e-07       8.31949901e-06      -1.45818478e-05 
      -5.51231912e-07       8.31949845e-06      -1.45818464e-05 
       1.48894440e-07       8.31949902e-06      -1.45818481e-05 
       5.49647688e-07       8.31949958e-06      -1.45818495e-05 
      -1.54232989e-07       8.88480572e-06      -1.55692967e-05 
      -5.65290140e-07       8.88480513e-06      -1.55692953e-05 
       1.52610851e-07       8.88480574e-06      -1.55692971e-05 
       5.63668001e-07       8.88480633e-06      -1.55692985e-05 
      -1.54232989e-07       8.88480572e-06      -1.55692967e-05 
      -5.65290140e-07       8.88480513e-06      -1.55692953e-05 
       1.52610851e-07       8.88480574e-06      -1.55692971e-05 
       5.63668001e-07       8.88480633e-06      -1.55692985e-05 
      -1.57871377e-07       9.46425481e-06      -1.65811303e-05 
      -5.78935073e-07       9.46425419e-06      -1.65811288e-05 
       1.56211022e-07       9.46425485e-06      -1.65811307e-05 
       5.77274718e-07       9.46425546e-06      -1.65811322e-05 
      -1.57871377e-07       9.46425481e-06      -1.65811303e-05 
      -5.78935073e-07       9.46425419e-06      -1.65811288e-05 
       1.56211022e-07       9.46425485e-06      -1.65811307e-05 
       5.77274718e-07       9.46425546e-06      -1.65811322e-05 
      -1.61393821e-07       1.00574322e-05      -1.76166110e-05 
      -5.92166705e-07       1.00574315e-05      -1.76166095e-05 
       1.59694959e-07       1.00574322e-05      -1.76166114e-05 
       5.90467844e-07       1.00574329e-05      -1.76166130e-05 
      -1.61393821e-07       1.00574322e-05      -1.76166110e-05 
      -5.92166705e-07       1.00574315e-05      -1.76166095e-05 
       1.59694959e-07       1.00574322e-05      -1.76166114e-05 
       5.90467844e-07       1.00574329e-05      -1.76166130e-05 
      -1.64804010e-07       1.06639332e-05      -1.86750208e-05 
      -6.05009117e-07       1.06639325e-05      -1.86750192e-05 
       1.63079314e-07       1.06639333e-05      -1.86750213e-05 
       6.03284422e-07       1.06639339e-05      -1.86750229e-05 
      -1.64804010e-07       1.06639332e-05      -1.86750208e-05 
      -6.05009117e-07       1.06639325e-05      -1.86750192e-05 
       1.63079314e-07       1.06639333e-05      -1.86750213e-05 
       6.03284422e-07       1.06639339e-05      -1.86750229e-05 
      -1.68116959e-07       1.12833909e-05      -1.97557139e-05 
      -6.17497423e-07       1.12833902e-05      -1.97557122e-05 
       1.66366088e-07       1.12833910e-05      -1.97557143e-05 
       6.15746552e-07       1.12833917e-05      -1.97557160e-05 
      -1.68116959e-07       1.12833909e-05      -1.97557139e-05 
      -6.17497423e-07       1.12833902e-05      -1.97557122e-05 
       1.66366088e-07       1.12833910e-05      -1.97557143e-05 
       6.15746552e-07       1.12833917e-05      -1.97557160e-05 
      -1.71332665e-07       1.19154475e-05      -2.08580611e-05 
      -6.29631614e-07       1.19154468e-05      -2.08580594e-05 
       1.69555286e-07       1.19154476e-05      -2.08580616e-05 
       6.27854236e-07       1.19154483e-05      -2.08580633e-05 
      -1.71332665e-07       1.19154475e-05      -2.08580611e-05 
      -6.29631614e-07       1.19154468e-05      -2.08580594e-05 
       1.69555286e-07       1.19154476e-05      -2.08580616e-05 
       6.27854236e-07       1.19154483e-05      -2.08580633e-05 
      -1.74451122e-07       1.25597453e-05      -2.19814335e-05 
      -6.41411690e-07       1.25597446e-05      -2.19814317e-05 
       1.72646912e-07       1.25597455e-05      -2.19814340e-05 
       6.39607480e-07       1.25597462e-05      -2.19814358e-05 
      -1.74451122e-07       1.25597453e-05      -2.19814335e-05 
      -6.41411690e-07       1.25597446e-05      -2.19814317e-05 
       1.72646912e-07       1.25597455e-05      -2.19814340e-05 
       6.39607480e-07       1.25597462e-05      -2.19814358e-05 
      -1.77472326e-07       1.32159267e-05      -2.31252020e-05 
      -6.52837643e-07       1.32159259e-05      -2.31252002e-05 
       1.75640971e-07       1.32159268e-05      -2.31252026e-05 
       6.51006289e-07       1.32159276e-05      -2.31252044e-05 
      -1.77472326e-07       1.32159267e-05      -2.31252020e-05 
      -6.52837643e-07       1.32159259e-05      -2.31252002e-05 
       1.75640971e-07       1.32159268e-05      -2.31252026e-05 
       6.51006289e-07       1.32159276e-05      -2.31252044e-05 
      -1.80396271e-07       1.38836338e-05      -2.42887376e-05 
      -6.63909470e-07       1.38836329e-05      -2.42887357e-05 
       1.78537468e-07       1.38836339e-05      -2.42887382e-05 
       6.62050666e-07       1.38836347e-05      -2.42887401e-05 
      -1.80396271e-07       1.38836338e-05      -2.42887376e-05 
      -6.63909470e-07       1.38836329e-05      -2.42887357e-05 
       1.78537468e-07       1.38836339e-05      -2.42887382e-05 
       6.62050666e-07       1.38836347e-05      -2.42887401e-05 
      -1.83222953e-07       1.45625089e-05      -2.54714113e-05 
      -6.74627164e-07       1.45625081e-05      -2.54714094e-05 
       1.81336408e-07       1.45625091e-05      -2.54714119e-05 
       6.72740619e-07       1.45625099e-05      -2.54714138e-05 
      -1.83222953e-07       1.45625089e-05      -2.54714113e-05 
      -6.74627164e-07       1.45625081e-05      -2.54714094e-05 
       1.81336408e-07       1.45625091e-05      -2.54714119e-05 
       6.72740619e-07       1.45625099e-05      -2.54714138e-05 
      -1.85952367e-07       1.52521944e-05      -2.66725940e-05 
      -6.84990720e-07       1.52521935e-05      -2.66725921e-05 
       1.84037797e-07       1.52521946e-05      -2.66725947e-05 
       6.83076150e-07       1.52521955e-05      -2.66725966e-05 
      -1.85952367e-07       1.52521944e-05      -2.66725940e-05 
      -6.84990720e-07       1.52521935e-05      -2.66725921e-05 