# vtk DataFile Version 2.0
./output/onsasExample_BladeCantileverBeamNoPitch_windVel3DDynamic 3D/onsasExample_BladeCantileverBeamNoPitch_windVel3DDynamic 3D_0114.vtk
ASCII
DATASET UNSTRUCTURED_GRID

POINTS 800 float
      -1.383389e-23      -7.180703e-02      -7.180703e-02 
      -3.770628e-24       7.180703e-02      -7.180703e-02 
       1.383389e-23       7.180703e-02       7.180703e-02 
       3.770628e-24      -7.180703e-02       7.180703e-02 
       2.000000e-01      -7.180702e-02      -7.180706e-02 
       2.000000e-01       7.180705e-02      -7.180706e-02 
       2.000000e-01       7.180705e-02       7.180701e-02 
       2.000000e-01      -7.180702e-02       7.180701e-02 
       2.000000e-01      -7.180702e-02      -7.180706e-02 
       2.000000e-01       7.180705e-02      -7.180706e-02 
       2.000000e-01       7.180705e-02       7.180701e-02 
       2.000000e-01      -7.180702e-02       7.180701e-02 
       4.000000e-01      -7.180698e-02      -7.180713e-02 
       3.999999e-01       7.180709e-02      -7.180713e-02 
       4.000000e-01       7.180709e-02       7.180693e-02 
       4.000001e-01      -7.180698e-02       7.180693e-02 
       4.000000e-01      -7.180698e-02      -7.180713e-02 
       3.999999e-01       7.180709e-02      -7.180713e-02 
       4.000000e-01       7.180709e-02       7.180693e-02 
       4.000001e-01      -7.180698e-02       7.180693e-02 
       6.000000e-01      -7.180691e-02      -7.180726e-02 
       5.999999e-01       7.180716e-02      -7.180726e-02 
       6.000000e-01       7.180716e-02       7.180681e-02 
       6.000001e-01      -7.180691e-02       7.180681e-02 
       6.000000e-01      -7.180691e-02      -7.180726e-02 
       5.999999e-01       7.180716e-02      -7.180726e-02 
       6.000000e-01       7.180716e-02       7.180681e-02 
       6.000001e-01      -7.180691e-02       7.180681e-02 
       8.000000e-01      -7.180682e-02      -7.180743e-02 
       7.999999e-01       7.180725e-02      -7.180743e-02 
       8.000000e-01       7.180725e-02       7.180664e-02 
       8.000001e-01      -7.180682e-02       7.180664e-02 
       8.000000e-01      -7.180682e-02      -7.180743e-02 
       7.999999e-01       7.180725e-02      -7.180743e-02 
       8.000000e-01       7.180725e-02       7.180664e-02 
       8.000001e-01      -7.180682e-02       7.180664e-02 
       1.000000e+00      -7.180669e-02      -7.180765e-02 
       9.999999e-01       7.180737e-02      -7.180765e-02 
       1.000000e+00       7.180737e-02       7.180642e-02 
       1.000000e+00      -7.180669e-02       7.180642e-02 
       1.000000e+00      -7.180669e-02      -7.180765e-02 
       9.999999e-01       7.180737e-02      -7.180765e-02 
       1.000000e+00       7.180737e-02       7.180642e-02 
       1.000000e+00      -7.180669e-02       7.180642e-02 
       1.200000e+00      -7.180655e-02      -7.180791e-02 
       1.200000e+00       7.180752e-02      -7.180791e-02 
       1.200000e+00       7.180752e-02       7.180616e-02 
       1.200000e+00      -7.180655e-02       7.180616e-02 
       1.200000e+00      -7.180655e-02      -7.180791e-02 
       1.200000e+00       7.180752e-02      -7.180791e-02 
       1.200000e+00       7.180752e-02       7.180616e-02 
       1.200000e+00      -7.180655e-02       7.180616e-02 
       1.400000e+00      -7.180638e-02      -7.180822e-02 
       1.400000e+00       7.180769e-02      -7.180822e-02 
       1.400000e+00       7.180769e-02       7.180585e-02 
       1.400000e+00      -7.180638e-02       7.180585e-02 
       1.400000e+00      -7.180638e-02      -7.180822e-02 
       1.400000e+00       7.180769e-02      -7.180822e-02 
       1.400000e+00       7.180769e-02       7.180585e-02 
       1.400000e+00      -7.180638e-02       7.180585e-02 
       1.600000e+00      -7.180618e-02      -7.180857e-02 
       1.600000e+00       7.180788e-02      -7.180857e-02 
       1.600000e+00       7.180788e-02       7.180550e-02 
       1.600000e+00      -7.180618e-02       7.180550e-02 
       1.600000e+00      -7.180618e-02      -7.180857e-02 
       1.600000e+00       7.180788e-02      -7.180857e-02 
       1.600000e+00       7.180788e-02       7.180550e-02 
       1.600000e+00      -7.180618e-02       7.180550e-02 
       1.800000e+00      -7.180597e-02      -7.180897e-02 
       1.800000e+00       7.180810e-02      -7.180897e-02 
       1.800000e+00       7.180810e-02       7.180510e-02 
       1.800000e+00      -7.180597e-02       7.180510e-02 
       1.800000e+00      -7.180597e-02      -7.180897e-02 
       1.800000e+00       7.180810e-02      -7.180897e-02 
       1.800000e+00       7.180810e-02       7.180510e-02 
       1.800000e+00      -7.180597e-02       7.180510e-02 
       2.000000e+00      -7.180572e-02      -7.180940e-02 
       2.000000e+00       7.180834e-02      -7.180940e-02 
       2.000000e+00       7.180834e-02       7.180466e-02 
       2.000000e+00      -7.180572e-02       7.180466e-02 
       2.000000e+00      -7.180572e-02      -7.180940e-02 
       2.000000e+00       7.180834e-02      -7.180940e-02 
       2.000000e+00       7.180834e-02       7.180466e-02 
       2.000000e+00      -7.180572e-02       7.180466e-02 
       2.200000e+00      -7.180546e-02      -7.180988e-02 
       2.200000e+00       7.180861e-02      -7.180988e-02 
       2.200000e+00       7.180861e-02       7.180419e-02 
       2.200000e+00      -7.180546e-02       7.180419e-02 
       2.200000e+00      -7.180546e-02      -7.180988e-02 
       2.200000e+00       7.180861e-02      -7.180988e-02 
       2.200000e+00       7.180861e-02       7.180419e-02 
       2.200000e+00      -7.180546e-02       7.180419e-02 
       2.400000e+00      -7.180517e-02      -7.181040e-02 
       2.400000e+00       7.180889e-02      -7.181040e-02 
       2.400000e+00       7.180889e-02       7.180367e-02 
       2.400000e+00      -7.180517e-02       7.180367e-02 
       2.400000e+00      -7.180517e-02      -7.181040e-02 
       2.400000e+00       7.180889e-02      -7.181040e-02 
       2.400000e+00       7.180889e-02       7.180367e-02 
       2.400000e+00      -7.180517e-02       7.180367e-02 
       2.600000e+00      -7.180487e-02      -7.181095e-02 
       2.600000e+00       7.180920e-02      -7.181095e-02 
       2.600000e+00       7.180920e-02       7.180311e-02 
       2.600000e+00      -7.180487e-02       7.180311e-02 
       2.600000e+00      -7.180487e-02      -7.181095e-02 
       2.600000e+00       7.180920e-02      -7.181095e-02 
       2.600000e+00       7.180920e-02       7.180311e-02 
       2.600000e+00      -7.180487e-02       7.180311e-02 
       2.800000e+00      -7.180454e-02      -7.181155e-02 
       2.800000e+00       7.180953e-02      -7.181155e-02 
       2.800000e+00       7.180953e-02       7.180252e-02 
       2.800000e+00      -7.180454e-02       7.180252e-02 
       2.800000e+00      -7.180454e-02      -7.181155e-02 
       2.800000e+00       7.180953e-02      -7.181155e-02 
       2.800000e+00       7.180953e-02       7.180252e-02 
       2.800000e+00      -7.180454e-02       7.180252e-02 
       3.000000e+00      -7.180419e-02      -7.181218e-02 
       3.000000e+00       7.180988e-02      -7.181218e-02 
       3.000000e+00       7.180988e-02       7.180188e-02 
       3.000000e+00      -7.180419e-02       7.180188e-02 
       3.000000e+00      -7.180419e-02      -7.181218e-02 
       3.000000e+00       7.180988e-02      -7.181218e-02 
       3.000000e+00       7.180988e-02       7.180188e-02 
       3.000000e+00      -7.180419e-02       7.180188e-02 
       3.200000e+00      -7.180382e-02      -7.181285e-02 
       3.200000e+00       7.181025e-02      -7.181285e-02 
       3.200000e+00       7.181025e-02       7.180121e-02 
       3.200000e+00      -7.180382e-02       7.180121e-02 
       3.200000e+00      -7.180382e-02      -7.181285e-02 
       3.200000e+00       7.181025e-02      -7.181285e-02 
       3.200000e+00       7.181025e-02       7.180121e-02 
       3.200000e+00      -7.180382e-02       7.180121e-02 
       3.400000e+00      -7.180343e-02      -7.181356e-02 
       3.400000e+00       7.181064e-02      -7.181356e-02 
       3.400000e+00       7.181064e-02       7.180051e-02 
       3.400000e+00      -7.180343e-02       7.180051e-02 
       3.400000e+00      -7.180343e-02      -7.181356e-02 
       3.400000e+00       7.181064e-02      -7.181356e-02 
       3.400000e+00       7.181064e-02       7.180051e-02 
       3.400000e+00      -7.180343e-02       7.180051e-02 
       3.600000e+00      -7.180302e-02      -7.181430e-02 
       3.600000e+00       7.181105e-02      -7.181430e-02 
       3.600000e+00       7.181105e-02       7.179977e-02 
       3.600000e+00      -7.180302e-02       7.179977e-02 
       3.600000e+00      -7.180302e-02      -7.181430e-02 
       3.600000e+00       7.181105e-02      -7.181430e-02 
       3.600000e+00       7.181105e-02       7.179977e-02 
       3.600000e+00      -7.180302e-02       7.179977e-02 
       3.800000e+00      -7.180259e-02      -7.181507e-02 
       3.800000e+00       7.181148e-02      -7.181507e-02 
       3.800000e+00       7.181148e-02       7.179900e-02 
       3.800000e+00      -7.180259e-02       7.179900e-02 
       3.800000e+00      -7.180259e-02      -7.181507e-02 
       3.800000e+00       7.181148e-02      -7.181507e-02 
       3.800000e+00       7.181148e-02       7.179900e-02 
       3.800000e+00      -7.180259e-02       7.179900e-02 
       4.000000e+00      -7.180214e-02      -7.181588e-02 
       4.000000e+00       7.181192e-02      -7.181588e-02 
       4.000000e+00       7.181192e-02       7.179819e-02 
       4.000000e+00      -7.180214e-02       7.179819e-02 
       4.000000e+00      -7.180214e-02      -7.181588e-02 
       4.000000e+00       7.181192e-02      -7.181588e-02 
       4.000000e+00       7.181192e-02       7.179819e-02 
       4.000000e+00      -7.180214e-02       7.179819e-02 
       4.200000e+00      -7.180168e-02      -7.181671e-02 
[...]
POINT_DATA       800 
VECTORS Displacements float
      -1.38338865e-23       1.38777878e-17       0.00000000e+00 
      -3.77062768e-24       0.00000000e+00       0.00000000e+00 
       1.38338865e-23      -1.38777878e-17       0.00000000e+00 
       3.77062768e-24       0.00000000e+00       0.00000000e+00 
      -8.11622097e-09       1.38762744e-08      -2.51630461e-08 
      -2.79813727e-08       1.38762730e-08      -2.51630163e-08 
       8.03896280e-09       1.38762481e-08      -2.51630208e-08 
       2.79041145e-08       1.38762495e-08      -2.51630506e-08 
      -8.11622097e-09       1.38762744e-08      -2.51630461e-08 
      -2.79813727e-08       1.38762730e-08      -2.51630163e-08 
       8.03896280e-09       1.38762481e-08      -2.51630208e-08 
       2.79041145e-08       1.38762495e-08      -2.51630506e-08 
      -1.60698927e-08       5.51535095e-08      -9.99986278e-08 
      -5.54215282e-08       5.51535041e-08      -9.99985633e-08 
       1.59152228e-08       5.51534592e-08      -9.99985810e-08 
       5.52668583e-08       5.51534646e-08      -9.99986455e-08 
      -1.60698927e-08       5.51535095e-08      -9.99986278e-08 
      -5.54215282e-08       5.51535041e-08      -9.99985633e-08 
       1.59152228e-08       5.51534592e-08      -9.99985810e-08 
       5.52668583e-08       5.51534646e-08      -9.99986455e-08 
      -2.38610136e-08       1.23304365e-07      -2.23526451e-07 
      -8.23204651e-08       1.23304353e-07      -2.23526348e-07 
       2.36287814e-08       1.23304292e-07      -2.23526387e-07 
       8.20882329e-08       1.23304304e-07      -2.23526490e-07 
      -2.38610136e-08       1.23304365e-07      -2.23526451e-07 
      -8.23204651e-08       1.23304353e-07      -2.23526348e-07 
       2.36287814e-08       1.23304292e-07      -2.23526387e-07 
       8.20882329e-08       1.23304304e-07      -2.23526490e-07 
      -3.14895822e-08       2.17801499e-07      -3.94766223e-07 
      -1.08678182e-07       2.17801478e-07      -3.94766076e-07 
       3.11796402e-08       2.17801406e-07      -3.94766144e-07 
       1.08368240e-07       2.17801427e-07      -3.94766291e-07 
      -3.14895822e-08       2.17801499e-07      -3.94766223e-07 
      -1.08678182e-07       2.17801478e-07      -3.94766076e-07 
       3.11796402e-08       2.17801406e-07      -3.94766144e-07 
       1.08368240e-07       2.17801427e-07      -3.94766291e-07 
      -3.89555970e-08       3.38117571e-07      -6.12737648e-07 
      -1.34494677e-07       3.38117539e-07      -6.12737454e-07 
       3.85678007e-08       3.38117460e-07      -6.12737558e-07 
       1.34106880e-07       3.38117492e-07      -6.12737752e-07 
      -3.89555970e-08       3.38117571e-07      -6.12737648e-07 
      -1.34494677e-07       3.38117539e-07      -6.12737454e-07 
       3.85678007e-08       3.38117460e-07      -6.12737558e-07 
       1.34106880e-07       3.38117492e-07      -6.12737752e-07 
      -4.62590564e-08       4.83725241e-07      -8.76460434e-07 
      -1.59769949e-07       4.83725196e-07      -8.76460189e-07 
       4.57932641e-08       4.83725113e-07      -8.76460336e-07 
       1.59304156e-07       4.83725158e-07      -8.76460581e-07 
      -4.62590564e-08       4.83725241e-07      -8.76460434e-07 
      -1.59769949e-07       4.83725196e-07      -8.76460189e-07 
       4.57932641e-08       4.83725113e-07      -8.76460336e-07 
       1.59304156e-07       4.83725158e-07      -8.76460581e-07 
      -5.33999591e-08       6.54097167e-07      -1.18495429e-06 
      -1.84503995e-07       6.54097107e-07      -1.18495399e-06 
       5.28560329e-08       6.54097024e-07      -1.18495418e-06 
       1.83960069e-07       6.54097084e-07      -1.18495448e-06 
      -5.33999591e-08       6.54097167e-07      -1.18495429e-06 
      -1.84503995e-07       6.54097107e-07      -1.18495399e-06 
       5.28560329e-08       6.54097024e-07      -1.18495418e-06 
       1.83960069e-07       6.54097084e-07      -1.18495448e-06 
      -6.03783032e-08       8.48706008e-07      -1.53723891e-06 
      -2.08696816e-07       8.48705932e-07      -1.53723855e-06 
       5.97561074e-08       8.48705851e-07      -1.53723880e-06 
       2.08074620e-07       8.48705928e-07      -1.53723916e-06 
      -6.03783032e-08       8.48706008e-07      -1.53723891e-06 
      -2.08696816e-07       8.48705932e-07      -1.53723855e-06 
       5.97561074e-08       8.48705851e-07      -1.53723880e-06 
       2.08074620e-07       8.48705928e-07      -1.53723916e-06 
      -6.71940876e-08       1.06702442e-06      -1.93233401e-06 
      -2.32348409e-07       1.06702433e-06      -1.93233360e-06 
       6.64934898e-08       1.06702425e-06      -1.93233391e-06 
       2.31647811e-07       1.06702435e-06      -1.93233432e-06 
      -6.71940876e-08       1.06702442e-06      -1.93233401e-06 
      -2.32348409e-07       1.06702433e-06      -1.93233360e-06 
       6.64934898e-08       1.06702425e-06      -1.93233391e-06 
       2.31647811e-07       1.06702435e-06      -1.93233432e-06 
      -7.38473107e-08       1.30852507e-06      -2.36925930e-06 
      -2.55458773e-07       1.30852496e-06      -2.36925882e-06 
       7.30681813e-08       1.30852489e-06      -2.36925920e-06 
       2.54679644e-07       1.30852501e-06      -2.36925968e-06 
      -7.38473109e-08       1.30852507e-06      -2.36925930e-06 
      -2.55458773e-07       1.30852496e-06      -2.36925882e-06 
       7.30681813e-08       1.30852489e-06      -2.36925920e-06 
       2.54679643e-07       1.30852501e-06      -2.36925968e-06 
      -8.03342757e-08       1.57269007e-06      -2.84705420e-06 
      -2.78044453e-07       1.57268993e-06      -2.84705366e-06 
       7.95052051e-08       1.57268989e-06      -2.84705411e-06 
       2.77215383e-07       1.57269003e-06      -2.84705464e-06 
      -8.03342757e-08       1.57269007e-06      -2.84705420e-06 
      -2.78044453e-07       1.57268993e-06      -2.84705366e-06 
       7.95052051e-08       1.57268989e-06      -2.84705411e-06 
       2.77215383e-07       1.57269003e-06      -2.84705464e-06 
      -8.66785324e-08       1.85903862e-06      -3.36483190e-06 
      -3.00148695e-07       1.85903846e-06      -3.36483131e-06 
       8.57991833e-08       1.85903844e-06      -3.36483182e-06 
       2.99269346e-07       1.85903860e-06      -3.36483242e-06 
      -8.66785324e-08       1.85903862e-06      -3.36483190e-06 
      -3.00148695e-07       1.85903846e-06      -3.36483131e-06 
       8.57991833e-08       1.85903844e-06      -3.36483182e-06 
       2.99269346e-07       1.85903860e-06      -3.36483242e-06 
      -9.28800783e-08       2.16709900e-06      -3.92172272e-06 
      -3.21771497e-07       2.16709881e-06      -3.92172208e-06 
       9.19501191e-08       2.16709882e-06      -3.92172267e-06 
       3.20841538e-07       2.16709901e-06      -3.92172332e-06 
      -9.28800783e-08       2.16709900e-06      -3.92172272e-06 
      -3.21771497e-07       2.16709881e-06      -3.92172208e-06 
       9.19501191e-08       2.16709882e-06      -3.92172267e-06 
       3.20841538e-07       2.16709901e-06      -3.92172332e-06 
      -9.89389095e-08       2.49639948e-06      -4.51685701e-06 
      -3.42912853e-07       2.49639927e-06      -4.51685630e-06 
       9.79580173e-08       2.49639931e-06      -4.51685698e-06 
       3.41931961e-07       2.49639952e-06      -4.51685769e-06 
      -9.89389095e-08       2.49639948e-06      -4.51685701e-06 
      -3.42912853e-07       2.49639927e-06      -4.51685630e-06 
       9.79580173e-08       2.49639931e-06      -4.51685698e-06 
       3.41931961e-07       2.49639952e-06      -4.51685769e-06 
      -1.04855023e-07       2.84646835e-06      -5.14936510e-06 
      -3.63572762e-07       2.84646811e-06      -5.14936433e-06 
       1.03822880e-07       2.84646818e-06      -5.14936509e-06 
       3.62540619e-07       2.84646842e-06      -5.14936586e-06 
      -1.04855023e-07       2.84646835e-06      -5.14936510e-06 
      -3.63572762e-07       2.84646811e-06      -5.14936433e-06 
       1.03822880e-07       2.84646818e-06      -5.14936509e-06 
       3.62540619e-07       2.84646842e-06      -5.14936586e-06 
      -1.10628414e-07       3.21683387e-06      -5.81837731e-06 
      -3.83751218e-07       3.21683361e-06      -5.81837647e-06 
       1.09544712e-07       3.21683372e-06      -5.81837732e-06 
       3.82667516e-07       3.21683398e-06      -5.81837815e-06 
      -1.10628414e-07       3.21683387e-06      -5.81837731e-06 
      -3.83751218e-07       3.21683361e-06      -5.81837647e-06 
       1.09544712e-07       3.21683372e-06      -5.81837732e-06 
       3.82667516e-07       3.21683398e-06      -5.81837815e-06 
      -1.16259079e-07       3.60702434e-06      -6.52302397e-06 
      -4.03448218e-07       3.60702405e-06      -6.52302307e-06 
       1.15123517e-07       3.60702419e-06      -6.52302401e-06 
       4.02312656e-07       3.60702448e-06      -6.52302491e-06 
      -1.16259079e-07       3.60702434e-06      -6.52302397e-06 
      -4.03448218e-07       3.60702405e-06      -6.52302307e-06 
       1.15123517e-07       3.60702419e-06      -6.52302401e-06 
       4.02312656e-07       3.60702448e-06      -6.52302491e-06 
      -1.21747016e-07       4.01656802e-06      -7.26243543e-06 
      -4.22663759e-07       4.01656770e-06      -7.26243446e-06 
       1.20559298e-07       4.01656788e-06      -7.26243549e-06 
       4.21476042e-07       4.01656819e-06      -7.26243645e-06 
      -1.21747016e-07       4.01656802e-06      -7.26243543e-06 
      -4.22663759e-07       4.01656770e-06      -7.26243446e-06 
       1.20559298e-07       4.01656788e-06      -7.26243549e-06 
       4.21476042e-07       4.01656819e-06      -7.26243645e-06 
      -1.27092219e-07       4.44499319e-06      -8.03574200e-06 
      -4.41397837e-07       4.44499285e-06      -8.03574097e-06 
       1.25852059e-07       4.44499306e-06      -8.03574209e-06 
       4.40157678e-07       4.44499340e-06      -8.03574312e-06 
      -1.27092219e-07       4.44499319e-06      -8.03574200e-06 
      -4.41397837e-07       4.44499285e-06      -8.03574097e-06 
       1.25852059e-07       4.44499306e-06      -8.03574209e-06 
       4.40157678e-07       4.44499340e-06      -8.03574312e-06 
      -1.32294685e-07       4.89182813e-06      -8.84207403e-06 
      -4.59650447e-07       4.89182776e-06      -8.84207293e-06 
       1.31001804e-07       4.89182801e-06      -8.84207414e-06 
       4.58357567e-07       4.89182838e-06      -8.84207524e-06 
      -1.32294685e-07       4.89182813e-06      -8.84207403e-06 
      -4.59650448e-07       4.89182776e-06      -8.84207293e-06 
       1.31001804e-07       4.89182801e-06      -8.84207414e-06 
       4.58357567e-07       4.89182838e-06      -8.84207524e-06 
      -1.37354348e-07       5.35661044e-06      -9.68058067e-06 
      -4.77441505e-07       5.35661003e-06      -9.68057951e-06 
       1.36028512e-07       5.35661032e-06      -9.68058082e-06 
       4.76115669e-07       5.35661073e-06      -9.68058198e-06 
      -1.37354348e-07       5.35661044e-06      -9.68058067e-06 
      -4.77441505e-07       5.35661003e-06      -9.68057951e-06 
       1.36028512e-07       5.35661032e-06      -9.68058082e-06 
       4.76115669e-07       5.35661073e-06      -9.68058198e-06 
      -1.42290048e-07       5.83891446e-06      -1.05504826e-05 
      -4.94809469e-07       5.83891403e-06      -1.05504814e-05 
       1.40930856e-07       5.83891437e-06      -1.05504828e-05 
       4.93450277e-07       5.83891480e-06      -1.05504840e-05 
      -1.42290048e-07       5.83891446e-06      -1.05504826e-05 
      -4.94809469e-07       5.83891403e-06      -1.05504814e-05 
       1.40930856e-07       5.83891437e-06      -1.05504828e-05 
       4.93450277e-07       5.83891480e-06      -1.05504840e-05 
      -1.47101777e-07       6.33832363e-06      -1.14510175e-05 
      -5.11754332e-07       6.33832317e-06      -1.14510162e-05 
       1.45708843e-07       6.33832355e-06      -1.14510177e-05 
       5.10361398e-07       6.33832402e-06      -1.14510190e-05 
      -1.47101777e-07       6.33832363e-06      -1.14510175e-05 
      -5.11754332e-07       6.33832317e-06      -1.14510162e-05 
       1.45708843e-07       6.33832355e-06      -1.14510177e-05 
       5.10361398e-07       6.33832402e-06      -1.14510190e-05 
      -1.51789533e-07       6.85442138e-06      -1.23814228e-05 
      -5.28276093e-07       6.85442089e-06      -1.23814215e-05 
       1.50362475e-07       6.85442132e-06      -1.23814231e-05 
       5.26849036e-07       6.85442181e-06      -1.23814244e-05 
      -1.51789533e-07       6.85442138e-06      -1.23814228e-05 
      -5.28276093e-07       6.85442089e-06      -1.23814215e-05 
       1.50362475e-07       6.85442132e-06      -1.23814231e-05 
       5.26849036e-07       6.85442181e-06      -1.23814244e-05 
      -1.56353312e-07       7.38679112e-06      -1.33409363e-05 
      -5.44374746e-07       7.38679060e-06      -1.33409349e-05 
       1.54891759e-07       7.38679108e-06      -1.33409366e-05 
       5.42913194e-07       7.38679160e-06      -1.33409380e-05 
      -1.56353312e-07       7.38679112e-06      -1.33409363e-05 
      -5.44374746e-07       7.38679060e-06      -1.33409349e-05 
       1.54891759e-07       7.38679108e-06      -1.33409366e-05 
       5.42913194e-07       7.38679160e-06      -1.33409380e-05 
      -1.60793106e-07       7.93501629e-06      -1.43287954e-05 
      -5.60050284e-07       7.93501574e-06      -1.43287940e-05 
       1.59296698e-07       7.93501626e-06      -1.43287958e-05 
       5.58553878e-07       7.93501682e-06      -1.43287972e-05 
      -1.60793106e-07       7.93501629e-06      -1.43287954e-05 
      -5.60050284e-07       7.93501574e-06      -1.43287940e-05 
       1.59296698e-07       7.93501626e-06      -1.43287958e-05 
       5.58553878e-07       7.93501682e-06      -1.43287972e-05 
      -1.65108912e-07       8.49868031e-06      -1.53442379e-05 
      -5.75302706e-07       8.49867972e-06      -1.53442364e-05 
       1.63577299e-07       8.49868030e-06      -1.53442383e-05 
       5.73771093e-07       8.49868088e-06      -1.53442398e-05 
      -1.65108912e-07       8.49868031e-06      -1.53442379e-05 
      -5.75302706e-07       8.49867972e-06      -1.53442364e-05 
       1.63577299e-07       8.49868030e-06      -1.53442383e-05 
       5.73771093e-07       8.49868088e-06      -1.53442398e-05 
      -1.69300725e-07       9.07736660e-06      -1.63865013e-05 
      -5.90132003e-07       9.07736599e-06      -1.63864997e-05 
       1.67733567e-07       9.07736661e-06      -1.63865017e-05 
       5.88564845e-07       9.07736722e-06      -1.63865033e-05 
      -1.69300725e-07       9.07736660e-06      -1.63865013e-05 
      -5.90132003e-07       9.07736599e-06      -1.63864997e-05 
       1.67733567e-07       9.07736661e-06      -1.63865017e-05 
       5.88564845e-07       9.07736722e-06      -1.63865033e-05 
      -1.73368540e-07       9.67065860e-06      -1.74548231e-05 
      -6.04538173e-07       9.67065795e-06      -1.74548215e-05 
       1.71765504e-07       9.67065861e-06      -1.74548236e-05 
       6.02935136e-07       9.67065926e-06      -1.74548252e-05 
      -1.73368540e-07       9.67065860e-06      -1.74548231e-05 
      -6.04538173e-07       9.67065795e-06      -1.74548215e-05 
       1.71765504e-07       9.67065861e-06      -1.74548236e-05 
       6.02935136e-07       9.67065926e-06      -1.74548252e-05 
      -1.77312353e-07       1.02781397e-05      -1.85484411e-05 
      -6.18521211e-07       1.02781390e-05      -1.85484394e-05 
       1.75673117e-07       1.02781397e-05      -1.85484416e-05 
       6.16881975e-07       1.02781404e-05      -1.85484433e-05 
      -1.77312352e-07       1.02781397e-05      -1.85484411e-05 
      -6.18521210e-07       1.02781390e-05      -1.85484394e-05 
       1.75673116e-07       1.02781397e-05      -1.85484416e-05 
       6.16881974e-07       1.02781404e-05      -1.85484433e-05 
      -1.81134942e-07       1.08994026e-05      -1.96666109e-05 
      -6.32103694e-07       1.08994019e-05      -1.96666091e-05 
       1.79472439e-07       1.08994027e-05      -1.96666114e-05 
       6.30441191e-07       1.08994034e-05      -1.96666132e-05 
      -1.81134942e-07       1.08994026e-05      -1.96666109e-05 
      -6.32103694e-07       1.08994019e-05      -1.96666091e-05 
       1.79472439e-07       1.08994027e-05      -1.96666114e-05 
       6.30441191e-07       1.08994034e-05      -1.96666132e-05 
      -1.84851499e-07       1.15340765e-05      -2.08086582e-05 
      -6.45320403e-07       1.15340757e-05      -2.08086563e-05 
       1.83165347e-07       1.15340765e-05      -2.08086587e-05 
       6.43634253e-07       1.15340773e-05      -2.08086606e-05 
      -1.84851499e-07       1.15340765e-05      -2.08086582e-05 
      -6.45320403e-07       1.15340757e-05      -2.08086563e-05 
       1.83165347e-07       1.15340765e-05      -2.08086587e-05 
       6.43634253e-07       1.15340773e-05      -2.08086606e-05 
      -1.88462016e-07       1.21817996e-05      -2.19739254e-05 
      -6.58171333e-07       1.21817988e-05      -2.19739235e-05 
       1.86751847e-07       1.21817997e-05      -2.19739260e-05 
       6.56461165e-07       1.21818004e-05      -2.19739279e-05 
      -1.88462016e-07       1.21817996e-05      -2.19739254e-05 
      -6.58171333e-07       1.21817988e-05      -2.19739235e-05 
       1.86751847e-07       1.21817997e-05      -2.19739260e-05 
       6.56461165e-07       1.21818004e-05      -2.19739279e-05 
      -1.91966492e-07       1.28422102e-05      -2.31617549e-05 
      -6.70656481e-07       1.28422094e-05      -2.31617529e-05 
       1.90231941e-07       1.28422103e-05      -2.31617555e-05 
       6.68921931e-07       1.28422111e-05      -2.31617575e-05 
      -1.91966492e-07       1.28422102e-05      -2.31617549e-05 
      -6.70656481e-07       1.28422094e-05      -2.31617529e-05 
       1.90231941e-07       1.28422103e-05      -2.31617555e-05 
       6.68921931e-07       1.28422111e-05      -2.31617575e-05 
      -1.95364918e-07       1.35149467e-05      -2.43714892e-05 
      -6.82775839e-07       1.35149458e-05      -2.43714872e-05 
       1.93605638e-07       1.35149468e-05      -2.43714898e-05 
       6.81016559e-07       1.35149476e-05      -2.43714918e-05 
      -1.95364918e-07       1.35149467e-05      -2.43714892e-05 
      -6.82775839e-07       1.35149458e-05      -2.43714872e-05 
       1.93605638e-07       1.35149468e-05      -2.43714898e-05 
       6.81016559e-07       1.35149476e-05      -2.43714918e-05 
      -1.98657291e-07       1.41996472e-05      -2.56024706e-05 
      -6.94529402e-07       1.41996464e-05      -2.56024685e-05 
       1.96872941e-07       1.41996474e-05      -2.56024713e-05 
       6.92745052e-07       1.41996482e-05      -2.56024734e-05 
      -1.98657291e-07       1.41996472e-05      -2.56024706e-05 
      -6.94529402e-07       1.41996464e-05      -2.56024685e-05 
       1.96872941e-07       1.41996474e-05      -2.56024713e-05 
       6.92745052e-07       1.41996482e-05      -2.56024734e-05 
      -2.01843605e-07       1.48959502e-05      -2.68540416e-05 
      -7.05917165e-07       1.48959493e-05      -2.68540395e-05 
       2.00033856e-07       1.48959503e-05      -2.68540424e-05 
       7.04107416e-07       1.48959512e-05      -2.68540445e-05 
      -2.01843605e-07       1.48959502e-05      -2.68540416e-05 
      -7.05917165e-07       1.48959493e-05      -2.68540395e-05 
       2.00033856e-07       1.48959503e-05      -2.68540424e-05 
       7.04107416e-07       1.48959512e-05      -2.68540445e-05 
      -2.04923854e-07       1.56034937e-05      -2.81255447e-05 
      -7.16939123e-07       1.56034928e-05      -2.81255425e-05 
       2.03088388e-07       1.56034939e-05      -2.81255454e-05 
       7.15103657e-07       1.56034948e-05      -2.81255476e-05 
      -2.04923854e-07       1.56034937e-05      -2.81255447e-05 
      -7.16939123e-07       1.56034928e-05      -2.81255425e-05 