# vtk DataFile Version 2.0
./output/onsasExample_BladeCantileverBeamNoPitch_windVel3DDynamic 3D/onsasExample_BladeCantileverBeamNoPitch_windVel3DDynamic 3D_0314.vtk
ASCII
DATASET UNSTRUCTURED_GRID

POINTS 800 float
      -2.545443e-23      -7.180703e-02      -7.180703e-02 
       2.743660e-23       7.180703e-02      -7.180703e-02 
       2.545443e-23       7.180703e-02       7.180703e-02 
      -2.743660e-23      -7.180703e-02       7.180703e-02 
       2.000000e-01      -7.180702e-02      -7.180706e-02 
       2.000000e-01       7.180705e-02      -7.180706e-02 
       2.000000e-01       7.180705e-02       7.180701e-02 
       2.000000e-01      -7.180702e-02       7.180701e-02 
       2.000000e-01      -7.180702e-02      -7.180706e-02 
       2.000000e-01       7.180705e-02      -7.180706e-02 
       2.000000e-01       7.180705e-02       7.180701e-02 
       2.000000e-01      -7.180702e-02       7.180701e-02 
       4.000000e-01      -7.180698e-02      -7.180714e-02 
       3.999999e-01       7.180709e-02      -7.180714e-02 
       4.000000e-01       7.180709e-02       7.180693e-02 
       4.000001e-01      -7.180698e-02       7.180693e-02 
       4.000000e-01      -7.180698e-02      -7.180714e-02 
       3.999999e-01       7.180709e-02      -7.180714e-02 
       4.000000e-01       7.180709e-02       7.180693e-02 
       4.000001e-01      -7.180698e-02       7.180693e-02 
       6.000000e-01      -7.180691e-02      -7.180727e-02 
       5.999999e-01       7.180716e-02      -7.180727e-02 
       6.000000e-01       7.180716e-02       7.180679e-02 
       6.000001e-01      -7.180691e-02       7.180679e-02 
       6.000000e-01      -7.180691e-02      -7.180727e-02 
       5.999999e-01       7.180716e-02      -7.180727e-02 
       6.000000e-01       7.180716e-02       7.180679e-02 
       6.000001e-01      -7.180691e-02       7.180679e-02 
       8.000000e-01      -7.180682e-02      -7.180746e-02 
       7.999999e-01       7.180725e-02      -7.180746e-02 
       8.000000e-01       7.180725e-02       7.180661e-02 
       8.000001e-01      -7.180682e-02       7.180661e-02 
       8.000000e-01      -7.180682e-02      -7.180746e-02 
       7.999999e-01       7.180725e-02      -7.180746e-02 
       8.000000e-01       7.180725e-02       7.180661e-02 
       8.000001e-01      -7.180682e-02       7.180661e-02 
       1.000000e+00      -7.180670e-02      -7.180769e-02 
       9.999999e-01       7.180737e-02      -7.180769e-02 
       1.000000e+00       7.180737e-02       7.180637e-02 
       1.000000e+00      -7.180670e-02       7.180637e-02 
       1.000000e+00      -7.180670e-02      -7.180769e-02 
       9.999999e-01       7.180737e-02      -7.180769e-02 
       1.000000e+00       7.180737e-02       7.180637e-02 
       1.000000e+00      -7.180670e-02       7.180637e-02 
       1.200000e+00      -7.180655e-02      -7.180798e-02 
       1.200000e+00       7.180752e-02      -7.180798e-02 
       1.200000e+00       7.180752e-02       7.180609e-02 
       1.200000e+00      -7.180655e-02       7.180609e-02 
       1.200000e+00      -7.180655e-02      -7.180798e-02 
       1.200000e+00       7.180752e-02      -7.180798e-02 
       1.200000e+00       7.180752e-02       7.180609e-02 
       1.200000e+00      -7.180655e-02       7.180609e-02 
       1.400000e+00      -7.180638e-02      -7.180831e-02 
       1.400000e+00       7.180769e-02      -7.180831e-02 
       1.400000e+00       7.180769e-02       7.180575e-02 
       1.400000e+00      -7.180638e-02       7.180575e-02 
       1.400000e+00      -7.180638e-02      -7.180831e-02 
       1.400000e+00       7.180769e-02      -7.180831e-02 
       1.400000e+00       7.180769e-02       7.180575e-02 
       1.400000e+00      -7.180638e-02       7.180575e-02 
       1.600000e+00      -7.180619e-02      -7.180869e-02 
       1.600000e+00       7.180788e-02      -7.180869e-02 
       1.600000e+00       7.180788e-02       7.180537e-02 
       1.600000e+00      -7.180619e-02       7.180537e-02 
       1.600000e+00      -7.180619e-02      -7.180869e-02 
       1.600000e+00       7.180788e-02      -7.180869e-02 
       1.600000e+00       7.180788e-02       7.180537e-02 
       1.600000e+00      -7.180619e-02       7.180537e-02 
       1.800000e+00      -7.180597e-02      -7.180912e-02 
       1.800000e+00       7.180810e-02      -7.180912e-02 
       1.800000e+00       7.180810e-02       7.180495e-02 
       1.800000e+00      -7.180597e-02       7.180495e-02 
       1.800000e+00      -7.180597e-02      -7.180912e-02 
       1.800000e+00       7.180810e-02      -7.180912e-02 
       1.800000e+00       7.180810e-02       7.180495e-02 
       1.800000e+00      -7.180597e-02       7.180495e-02 
       2.000000e+00      -7.180573e-02      -7.180959e-02 
       2.000000e+00       7.180834e-02      -7.180959e-02 
       2.000000e+00       7.180834e-02       7.180448e-02 
       2.000000e+00      -7.180573e-02       7.180448e-02 
       2.000000e+00      -7.180573e-02      -7.180959e-02 
       2.000000e+00       7.180834e-02      -7.180959e-02 
       2.000000e+00       7.180834e-02       7.180448e-02 
       2.000000e+00      -7.180573e-02       7.180448e-02 
       2.200000e+00      -7.180546e-02      -7.181011e-02 
       2.200000e+00       7.180860e-02      -7.181011e-02 
       2.200000e+00       7.180860e-02       7.180396e-02 
       2.200000e+00      -7.180546e-02       7.180396e-02 
       2.200000e+00      -7.180546e-02      -7.181011e-02 
       2.200000e+00       7.180860e-02      -7.181011e-02 
       2.200000e+00       7.180860e-02       7.180396e-02 
       2.200000e+00      -7.180546e-02       7.180396e-02 
       2.400000e+00      -7.180518e-02      -7.181067e-02 
       2.400000e+00       7.180889e-02      -7.181067e-02 
       2.400000e+00       7.180889e-02       7.180340e-02 
       2.400000e+00      -7.180518e-02       7.180340e-02 
       2.400000e+00      -7.180518e-02      -7.181067e-02 
       2.400000e+00       7.180889e-02      -7.181067e-02 
       2.400000e+00       7.180889e-02       7.180340e-02 
       2.400000e+00      -7.180518e-02       7.180340e-02 
       2.600000e+00      -7.180487e-02      -7.181127e-02 
       2.600000e+00       7.180919e-02      -7.181127e-02 
       2.600000e+00       7.180919e-02       7.180280e-02 
       2.600000e+00      -7.180487e-02       7.180280e-02 
       2.600000e+00      -7.180487e-02      -7.181127e-02 
       2.600000e+00       7.180919e-02      -7.181127e-02 
       2.600000e+00       7.180919e-02       7.180280e-02 
       2.600000e+00      -7.180487e-02       7.180280e-02 
       2.800000e+00      -7.180454e-02      -7.181191e-02 
       2.800000e+00       7.180952e-02      -7.181191e-02 
       2.800000e+00       7.180952e-02       7.180215e-02 
       2.800000e+00      -7.180454e-02       7.180215e-02 
       2.800000e+00      -7.180454e-02      -7.181191e-02 
       2.800000e+00       7.180952e-02      -7.181191e-02 
       2.800000e+00       7.180952e-02       7.180215e-02 
       2.800000e+00      -7.180454e-02       7.180215e-02 
       3.000000e+00      -7.180419e-02      -7.181260e-02 
       3.000000e+00       7.180987e-02      -7.181260e-02 
       3.000000e+00       7.180987e-02       7.180147e-02 
       3.000000e+00      -7.180419e-02       7.180147e-02 
       3.000000e+00      -7.180419e-02      -7.181260e-02 
       3.000000e+00       7.180987e-02      -7.181260e-02 
       3.000000e+00       7.180987e-02       7.180147e-02 
       3.000000e+00      -7.180419e-02       7.180147e-02 
       3.200000e+00      -7.180383e-02      -7.181332e-02 
       3.200000e+00       7.181024e-02      -7.181332e-02 
       3.200000e+00       7.181024e-02       7.180075e-02 
       3.200000e+00      -7.180383e-02       7.180075e-02 
       3.200000e+00      -7.180383e-02      -7.181332e-02 
       3.200000e+00       7.181024e-02      -7.181332e-02 
       3.200000e+00       7.181024e-02       7.180075e-02 
       3.200000e+00      -7.180383e-02       7.180075e-02 
       3.400000e+00      -7.180344e-02      -7.181408e-02 
       3.400000e+00       7.181063e-02      -7.181408e-02 
       3.400000e+00       7.181063e-02       7.179998e-02 
       3.400000e+00      -7.180344e-02       7.179998e-02 
       3.400000e+00      -7.180344e-02      -7.181408e-02 
       3.400000e+00       7.181063e-02      -7.181408e-02 
       3.400000e+00       7.181063e-02       7.179998e-02 
       3.400000e+00      -7.180344e-02       7.179998e-02 
       3.600000e+00      -7.180303e-02      -7.181488e-02 
       3.600000e+00       7.181104e-02      -7.181488e-02 
       3.600000e+00       7.181104e-02       7.179918e-02 
       3.600000e+00      -7.180303e-02       7.179918e-02 
       3.600000e+00      -7.180303e-02      -7.181488e-02 
       3.600000e+00       7.181104e-02      -7.181488e-02 
       3.600000e+00       7.181104e-02       7.179918e-02 
       3.600000e+00      -7.180303e-02       7.179918e-02 
       3.800000e+00      -7.180260e-02      -7.181572e-02 
       3.800000e+00       7.181147e-02      -7.181572e-02 
       3.800000e+00       7.181147e-02       7.179835e-02 
       3.800000e+00      -7.180260e-02       7.179835e-02 
       3.800000e+00      -7.180260e-02      -7.181572e-02 
       3.800000e+00       7.181147e-02      -7.181572e-02 
       3.800000e+00       7.181147e-02       7.179835e-02 
       3.800000e+00      -7.180260e-02       7.179835e-02 
       4.000000e+00      -7.180216e-02      -7.181659e-02 
       4.000000e+00       7.181191e-02      -7.181659e-02 
       4.000000e+00       7.181191e-02       7.179747e-02 
       4.000000e+00      -7.180216e-02       7.179747e-02 
       4.000000e+00      -7.180216e-02      -7.181659e-02 
       4.000000e+00       7.181191e-02      -7.181659e-02 
       4.000000e+00       7.181191e-02       7.179747e-02 
       4.000000e+00      -7.180216e-02       7.179747e-02 
       4.200000e+00      -7.180169e-02      -7.181750e-02 
[...]
POINT_DATA       800 
VECTORS Displacements float
      -2.54544274e-23      -2.77555756e-17      -1.38777878e-17 
       2.74365950e-23       1.38777878e-17      -1.38777878e-17 
       2.54544274e-23       2.77555756e-17       1.38777878e-17 
      -2.74365950e-23      -1.38777878e-17       1.38777878e-17 
      -9.54025978e-09       1.38427904e-08      -2.71168637e-08 
      -2.93572835e-08       1.38427890e-08      -2.71168289e-08 
       9.46318363e-09       1.38427597e-08      -2.71168341e-08 
       2.92802073e-08       1.38427610e-08      -2.71168689e-08 
      -9.54025978e-09       1.38427904e-08      -2.71168637e-08 
      -2.93572835e-08       1.38427890e-08      -2.71168289e-08 
       9.46318363e-09       1.38427597e-08      -2.71168341e-08 
       2.92802073e-08       1.38427610e-08      -2.71168689e-08 
      -1.89006240e-08       5.50193625e-08      -1.07781460e-07 
      -5.81557812e-08       5.50193572e-08      -1.07781386e-07 
       1.87462990e-08       5.50193036e-08      -1.07781406e-07 
       5.80014563e-08       5.50193089e-08      -1.07781481e-07 
      -1.89006240e-08       5.50193625e-08      -1.07781460e-07 
      -5.81557812e-08       5.50193572e-08      -1.07781386e-07 
       1.87462990e-08       5.50193036e-08      -1.07781406e-07 
       5.80014563e-08       5.50193089e-08      -1.07781481e-07 
      -2.80810910e-08       1.23002066e-07      -2.40964847e-07 
      -8.63954915e-08       1.23002054e-07      -2.40964727e-07 
       2.78493480e-08       1.23001981e-07      -2.40964773e-07 
       8.61637486e-08       1.23001993e-07      -2.40964892e-07 
      -2.80810910e-08       1.23002066e-07      -2.40964847e-07 
      -8.63954915e-08       1.23002054e-07      -2.40964727e-07 
       2.78493480e-08       1.23001981e-07      -2.40964773e-07 
       8.61637486e-08       1.23001993e-07      -2.40964892e-07 
      -3.70816592e-08       2.17263250e-07      -4.25638079e-07 
      -1.14076413e-07       2.17263230e-07      -4.25637910e-07 
       3.67723321e-08       2.17263142e-07      -4.25637989e-07 
       1.13767086e-07       2.17263163e-07      -4.25638158e-07 
      -3.70816592e-08       2.17263250e-07      -4.25638079e-07 
      -1.14076413e-07       2.17263230e-07      -4.25637910e-07 
       3.67723321e-08       2.17263142e-07      -4.25637989e-07 
       1.13767086e-07       2.17263163e-07      -4.25638158e-07 
      -4.59023267e-08       3.37275265e-07      -6.60772214e-07 
      -1.41198543e-07       3.37275234e-07      -6.60771991e-07 
       4.55152531e-08       3.37275135e-07      -6.60772113e-07 
       1.40811470e-07       3.37275167e-07      -6.60772335e-07 
      -4.59023267e-08       3.37275265e-07      -6.60772214e-07 
      -1.41198543e-07       3.37275234e-07      -6.60771991e-07 
       4.55152531e-08       3.37275135e-07      -6.60772113e-07 
       1.40811470e-07       3.37275167e-07      -6.60772335e-07 
      -5.45430920e-08       4.82510460e-07      -9.45338307e-07 
      -1.67761882e-07       4.82510415e-07      -9.45338028e-07 
       5.40781122e-08       4.82510310e-07      -9.45338199e-07 
       1.67296902e-07       4.82510355e-07      -9.45338479e-07 
      -5.45430920e-08       4.82510460e-07      -9.45338307e-07 
      -1.67761882e-07       4.82510415e-07      -9.45338028e-07 
       5.40781122e-08       4.82510310e-07      -9.45338199e-07 
       1.67296902e-07       4.82510355e-07      -9.45338479e-07 
      -6.30039534e-08       6.52441184e-07      -1.27830742e-06 
      -1.93766426e-07       6.52441125e-07      -1.27830708e-06 
       6.24609118e-08       6.52441017e-07      -1.27830730e-06 
       1.93223384e-07       6.52441076e-07      -1.27830765e-06 
      -6.30039534e-08       6.52441184e-07      -1.27830742e-06 
      -1.93766426e-07       6.52441125e-07      -1.27830708e-06 
       6.24609118e-08       6.52441017e-07      -1.27830730e-06 
       1.93223384e-07       6.52441076e-07      -1.27830765e-06 
      -7.12849098e-08       8.46539788e-07      -1.65865060e-06 
      -2.19212174e-07       8.46539712e-07      -1.65865019e-06 
       7.06636532e-08       8.46539604e-07      -1.65865048e-06 
       2.18590918e-07       8.46539680e-07      -1.65865089e-06 
      -7.12849098e-08       8.46539788e-07      -1.65865060e-06 
      -2.19212174e-07       8.46539712e-07      -1.65865019e-06 
       7.06636532e-08       8.46539604e-07      -1.65865048e-06 
       2.18590918e-07       8.46539680e-07      -1.65865089e-06 
      -7.93859585e-08       1.06427862e-06      -2.08533891e-06 
      -2.44099125e-07       1.06427853e-06      -2.08533843e-06 
       7.86863379e-08       1.06427842e-06      -2.08533880e-06 
       2.43399505e-07       1.06427852e-06      -2.08533927e-06 
      -7.93859585e-08       1.06427862e-06      -2.08533891e-06 
      -2.44099125e-07       1.06427853e-06      -2.08533843e-06 
       7.86863379e-08       1.06427842e-06      -2.08533880e-06 
       2.43399505e-07       1.06427852e-06      -2.08533927e-06 
      -8.73070989e-08       1.30513003e-06      -2.55734340e-06 
      -2.68427278e-07       1.30512992e-06      -2.55734286e-06 
       8.65289680e-08       1.30512982e-06      -2.55734330e-06 
       2.67649147e-07       1.30512993e-06      -2.55734384e-06 
      -8.73070987e-08       1.30513003e-06      -2.55734340e-06 
      -2.68427278e-07       1.30512992e-06      -2.55734286e-06 
       8.65289680e-08       1.30512982e-06      -2.55734330e-06 
       2.67649147e-07       1.30512993e-06      -2.55734384e-06 
      -9.50426422e-08       1.56857573e-06      -3.07365303e-06 
      -2.92210964e-07       1.56857559e-06      -3.07365243e-06 
       9.42153049e-08       1.56857552e-06      -3.07365295e-06 
       2.91383627e-07       1.56857565e-06      -3.07365355e-06 
      -9.50426422e-08       1.56857573e-06      -3.07365303e-06 
      -2.92210964e-07       1.56857559e-06      -3.07365243e-06 
       9.42153049e-08       1.56857552e-06      -3.07365295e-06 
       2.91383627e-07       1.56857565e-06      -3.07365355e-06 
      -1.02615860e-07       1.85413403e-06      -3.63332577e-06 
      -3.15492840e-07       1.85413387e-06      -3.63332510e-06 
       1.01738934e-07       1.85413382e-06      -3.63332571e-06 
       3.14615915e-07       1.85413398e-06      -3.63332638e-06 
      -1.02615860e-07       1.85413403e-06      -3.63332577e-06 
      -3.15492840e-07       1.85413387e-06      -3.63332510e-06 
       1.01738934e-07       1.85413382e-06      -3.63332571e-06 
       3.14615915e-07       1.85413398e-06      -3.63332638e-06 
      -1.10026748e-07       2.16133215e-06      -4.23543620e-06 
      -3.38272903e-07       2.16133197e-06      -4.23543547e-06 
       1.09099859e-07       2.16133194e-06      -4.23543617e-06 
       3.37346014e-07       2.16133212e-06      -4.23543690e-06 
      -1.10026748e-07       2.16133215e-06      -4.23543620e-06 
      -3.38272903e-07       2.16133197e-06      -4.23543547e-06 
       1.09099859e-07       2.16133194e-06      -4.23543617e-06 
       3.37346014e-07       2.16133212e-06      -4.23543690e-06 
      -1.17275303e-07       2.48969732e-06      -4.87905890e-06 
      -3.60551147e-07       2.48969711e-06      -4.87905810e-06 
       1.16298085e-07       2.48969712e-06      -4.87905889e-06 
       3.59573929e-07       2.48969733e-06      -4.87905969e-06 
      -1.17275303e-07       2.48969732e-06      -4.87905890e-06 
      -3.60551147e-07       2.48969711e-06      -4.87905810e-06 
       1.16298085e-07       2.48969712e-06      -4.87905889e-06 
       3.59573929e-07       2.48969733e-06      -4.87905969e-06 
      -1.24361520e-07       2.83875677e-06      -5.56326844e-06 
      -3.82327569e-07       2.83875654e-06      -5.56326757e-06 
       1.23333614e-07       2.83875658e-06      -5.56326846e-06 
       3.81299663e-07       2.83875681e-06      -5.56326933e-06 
      -1.24361520e-07       2.83875677e-06      -5.56326844e-06 
      -3.82327569e-07       2.83875654e-06      -5.56326757e-06 
       1.23333614e-07       2.83875658e-06      -5.56326846e-06 
       3.81299663e-07       2.83875681e-06      -5.56326933e-06 
      -1.31285396e-07       3.20803772e-06      -6.28713941e-06 
      -4.03602165e-07       3.20803747e-06      -6.28713847e-06 
       1.30206452e-07       3.20803754e-06      -6.28713946e-06 
       4.02523221e-07       3.20803780e-06      -6.28714041e-06 
      -1.31285396e-07       3.20803772e-06      -6.28713941e-06 
      -4.03602165e-07       3.20803747e-06      -6.28713847e-06 
       1.30206452e-07       3.20803754e-06      -6.28713946e-06 
       4.02523221e-07       3.20803780e-06      -6.28714041e-06 
      -1.38046926e-07       3.59706741e-06      -7.04974638e-06 
      -4.24374930e-07       3.59706712e-06      -7.04974537e-06 
       1.36916603e-07       3.59706723e-06      -7.04974647e-06 
       4.23244608e-07       3.59706751e-06      -7.04974748e-06 
      -1.38046926e-07       3.59706741e-06      -7.04974638e-06 
      -4.24374930e-07       3.59706712e-06      -7.04974537e-06 
       1.36916603e-07       3.59706723e-06      -7.04974647e-06 
       4.23244608e-07       3.59706751e-06      -7.04974748e-06 
      -1.44646106e-07       4.00537305e-06      -7.85016394e-06 
      -4.44645862e-07       4.00537274e-06      -7.85016285e-06 
       1.43464070e-07       4.00537288e-06      -7.85016406e-06 
       4.43463825e-07       4.00537319e-06      -7.85016514e-06 
      -1.44646106e-07       4.00537305e-06      -7.85016394e-06 
      -4.44645862e-07       4.00537274e-06      -7.85016285e-06 
       1.43464070e-07       4.00537288e-06      -7.85016406e-06 
       4.43463825e-07       4.00537319e-06      -7.85016514e-06 
      -1.51082932e-07       4.43248188e-06      -8.68746665e-06 
      -4.64414954e-07       4.43248154e-06      -8.68746549e-06 
       1.49848857e-07       4.43248171e-06      -8.68746680e-06 
       4.63180879e-07       4.43248206e-06      -8.68746796e-06 
      -1.51082932e-07       4.43248188e-06      -8.68746665e-06 
      -4.64414954e-07       4.43248154e-06      -8.68746549e-06 
       1.49848857e-07       4.43248171e-06      -8.68746680e-06 
       4.63180879e-07       4.43248206e-06      -8.68746796e-06 
      -1.57357400e-07       4.87792111e-06      -9.56072910e-06 
      -4.83682205e-07       4.87792074e-06      -9.56072786e-06 
       1.56070969e-07       4.87792096e-06      -9.56072929e-06 
       4.82395773e-07       4.87792133e-06      -9.56073052e-06 
      -1.57357400e-07       4.87792111e-06      -9.56072910e-06 
      -4.83682205e-07       4.87792074e-06      -9.56072786e-06 
       1.56070969e-07       4.87792096e-06      -9.56072929e-06 
       4.82395773e-07       4.87792133e-06      -9.56073052e-06 
      -1.63467576e-07       5.34122706e-06      -1.04690426e-05 
      -5.02465248e-07       5.34122666e-06      -1.04690413e-05 
       1.62149187e-07       5.34122692e-06      -1.04690428e-05 
       5.01146858e-07       5.34122732e-06      -1.04690441e-05 
      -1.63467576e-07       5.34122706e-06      -1.04690426e-05 
      -5.02465248e-07       5.34122666e-06      -1.04690413e-05 
       1.62149187e-07       5.34122692e-06      -1.04690428e-05 
       5.01146858e-07       5.34122732e-06      -1.04690441e-05 
      -1.69433059e-07       5.82197244e-06      -1.14115675e-05 
      -5.20803355e-07       5.82197201e-06      -1.14115661e-05 
       1.68082257e-07       5.82197233e-06      -1.14115678e-05 
       5.19452554e-07       5.82197276e-06      -1.14115692e-05 
      -1.69433059e-07       5.82197244e-06      -1.14115675e-05 
      -5.20803355e-07       5.82197201e-06      -1.14115661e-05 
       1.68082257e-07       5.82197233e-06      -1.14115678e-05 
       5.19452554e-07       5.82197276e-06      -1.14115692e-05 
      -1.75253842e-07       6.31973915e-06      -1.23874821e-05 
      -5.38696519e-07       6.31973869e-06      -1.23874807e-05 
       1.73870187e-07       6.31973905e-06      -1.23874824e-05 
       5.37312864e-07       6.31973951e-06      -1.23874839e-05 
      -1.75253842e-07       6.31973915e-06      -1.23874821e-05 
      -5.38696519e-07       6.31973869e-06      -1.23874807e-05 
       1.73870187e-07       6.31973905e-06      -1.23874824e-05 
       5.37312864e-07       6.31973951e-06      -1.23874839e-05 
      -1.80929921e-07       6.83410904e-06      -1.33959646e-05 
      -5.56144736e-07       6.83410855e-06      -1.33959631e-05 
       1.79512980e-07       6.83410896e-06      -1.33959650e-05 
       5.54727794e-07       6.83410945e-06      -1.33959665e-05 
      -1.80929921e-07       6.83410904e-06      -1.33959646e-05 
      -5.56144736e-07       6.83410855e-06      -1.33959631e-05 
       1.79512980e-07       6.83410896e-06      -1.33959650e-05 
       5.54727794e-07       6.83410945e-06      -1.33959665e-05 
      -1.86461290e-07       7.36466400e-06      -1.44361933e-05 
      -5.73147999e-07       7.36466348e-06      -1.44361917e-05 
       1.85010641e-07       7.36466394e-06      -1.44361937e-05 
       5.71697351e-07       7.36466446e-06      -1.44361953e-05 
      -1.86461290e-07       7.36466400e-06      -1.44361933e-05 
      -5.73147999e-07       7.36466348e-06      -1.44361917e-05 
       1.85010641e-07       7.36466394e-06      -1.44361937e-05 
       5.71697351e-07       7.36466446e-06      -1.44361953e-05 
      -1.91847945e-07       7.91098590e-06      -1.55073463e-05 
      -5.89706305e-07       7.91098535e-06      -1.55073446e-05 
       1.90363177e-07       7.91098586e-06      -1.55073468e-05 
       5.88221538e-07       7.91098641e-06      -1.55073484e-05 
      -1.91847945e-07       7.91098590e-06      -1.55073463e-05 
      -5.89706305e-07       7.91098535e-06      -1.55073446e-05 
       1.90363177e-07       7.91098586e-06      -1.55073468e-05 
       5.88221538e-07       7.91098641e-06      -1.55073484e-05 
      -1.97089878e-07       8.47265662e-06      -1.66086020e-05 
      -6.05819646e-07       8.47265604e-06      -1.66086002e-05 
       1.95570593e-07       8.47265659e-06      -1.66086025e-05 
       6.04300362e-07       8.47265718e-06      -1.66086042e-05 
      -1.97089878e-07       8.47265662e-06      -1.66086020e-05 
      -6.05819646e-07       8.47265604e-06      -1.66086002e-05 
       1.95570593e-07       8.47265659e-06      -1.66086025e-05 
       6.04300362e-07       8.47265718e-06      -1.66086042e-05 
      -2.02187083e-07       9.04925803e-06      -1.77391385e-05 
      -6.21488016e-07       9.04925741e-06      -1.77391367e-05 
       2.00632897e-07       9.04925802e-06      -1.77391390e-05 
       6.19933830e-07       9.04925863e-06      -1.77391408e-05 
      -2.02187083e-07       9.04925803e-06      -1.77391385e-05 
      -6.21488016e-07       9.04925741e-06      -1.77391367e-05 
       2.00632897e-07       9.04925802e-06      -1.77391390e-05 
       6.19933830e-07       9.04925863e-06      -1.77391408e-05 
      -2.07139559e-07       9.64037200e-06      -1.88981341e-05 
      -6.36711412e-07       9.64037136e-06      -1.88981322e-05 
       2.05550090e-07       9.64037201e-06      -1.88981347e-05 
       6.35121943e-07       9.64037265e-06      -1.88981366e-05 
      -2.07139559e-07       9.64037200e-06      -1.88981341e-05 
      -6.36711412e-07       9.64037136e-06      -1.88981322e-05 
       2.05550090e-07       9.64037201e-06      -1.88981347e-05 
       6.35121943e-07       9.64037265e-06      -1.88981366e-05 
      -2.11947298e-07       1.02455804e-05      -2.00847670e-05 
      -6.51489829e-07       1.02455797e-05      -2.00847651e-05 
       2.10322179e-07       1.02455804e-05      -2.00847677e-05 
       6.49864710e-07       1.02455811e-05      -2.00847696e-05 
      -2.11947297e-07       1.02455804e-05      -2.00847670e-05 
      -6.51489828e-07       1.02455797e-05      -2.00847651e-05 
       2.10322179e-07       1.02455804e-05      -2.00847677e-05 
       6.49864710e-07       1.02455811e-05      -2.00847696e-05 
      -2.16612014e-07       1.08644742e-05      -2.12982323e-05 
      -6.65844510e-07       1.08644735e-05      -2.12982303e-05 
       2.14964671e-07       1.08644742e-05      -2.12982330e-05 
       6.64197167e-07       1.08644749e-05      -2.12982350e-05 
      -2.16612014e-07       1.08644742e-05      -2.12982323e-05 
      -6.65844510e-07       1.08644735e-05      -2.12982303e-05 
       2.14964671e-07       1.08644742e-05      -2.12982330e-05 
       6.64197167e-07       1.08644749e-05      -2.12982350e-05 
      -2.21150370e-07       1.14966808e-05      -2.25377956e-05 
      -6.79812032e-07       1.14966800e-05      -2.25377935e-05 
       2.19480367e-07       1.14966808e-05      -2.25377963e-05 
       6.78142030e-07       1.14966816e-05      -2.25377984e-05 
      -2.21150370e-07       1.14966808e-05      -2.25377956e-05 
      -6.79812032e-07       1.14966800e-05      -2.25377935e-05 
       2.19480367e-07       1.14966808e-05      -2.25377963e-05 
       6.78142030e-07       1.14966816e-05      -2.25377984e-05 
      -2.25562359e-07       1.21418370e-05      -2.38027411e-05 
      -6.93392386e-07       1.21418363e-05      -2.38027390e-05 
       2.23869275e-07       1.21418371e-05      -2.38027419e-05 
       6.91699302e-07       1.21418379e-05      -2.38027440e-05 
      -2.25562359e-07       1.21418370e-05      -2.38027411e-05 
      -6.93392386e-07       1.21418363e-05      -2.38027390e-05 
       2.23869275e-07       1.21418371e-05      -2.38027419e-05 
       6.91699302e-07       1.21418379e-05      -2.38027440e-05 
      -2.29847977e-07       1.27995798e-05      -2.50923531e-05 
      -7.06585570e-07       1.27995790e-05      -2.50923509e-05 
       2.28131399e-07       1.27995799e-05      -2.50923539e-05 
       7.04868992e-07       1.27995807e-05      -2.50923561e-05 
      -2.29847977e-07       1.27995798e-05      -2.50923531e-05 
      -7.06585570e-07       1.27995790e-05      -2.50923509e-05 
       2.28131399e-07       1.27995799e-05      -2.50923539e-05 
       7.04868992e-07       1.27995807e-05      -2.50923561e-05 
      -2.34007217e-07       1.34695457e-05      -2.64059159e-05 
      -7.19391574e-07       1.34695449e-05      -2.64059136e-05 
       2.32266746e-07       1.34695459e-05      -2.64059168e-05 
       7.17651103e-07       1.34695467e-05      -2.64059190e-05 
      -2.34007217e-07       1.34695457e-05      -2.64059159e-05 
      -7.19391574e-07       1.34695449e-05      -2.64059136e-05 
       2.32266746e-07       1.34695459e-05      -2.64059168e-05 
       7.17651103e-07       1.34695467e-05      -2.64059190e-05 
      -2.38040073e-07       1.41513718e-05      -2.77427137e-05 
      -7.31810395e-07       1.41513710e-05      -2.77427113e-05 
       2.36275322e-07       1.41513720e-05      -2.77427146e-05 
       7.30045643e-07       1.41513728e-05      -2.77427169e-05 
      -2.38040073e-07       1.41513718e-05      -2.77427137e-05 
      -7.31810395e-07       1.41513710e-05      -2.77427113e-05 
       2.36275322e-07       1.41513720e-05      -2.77427146e-05 
       7.30045643e-07       1.41513728e-05      -2.77427169e-05 
      -2.41946539e-07       1.48446947e-05      -2.91020307e-05 
      -7.43842025e-07       1.48446939e-05      -2.91020283e-05 
       2.40157132e-07       1.48446949e-05      -2.91020317e-05 
       7.42052618e-07       1.48446958e-05      -2.91020341e-05 
      -2.41946539e-07       1.48446947e-05      -2.91020307e-05 
      -7.43842025e-07       1.48446939e-05      -2.91020283e-05 
       2.40157132e-07       1.48446949e-05      -2.91020317e-05 
       7.42052618e-07       1.48446958e-05      -2.91020341e-05 
      -2.45726608e-07       1.55491514e-05      -3.04831513e-05 
      -7.55486459e-07       1.55491504e-05      -3.04831489e-05 
       2.43912185e-07       1.55491516e-05      -3.04831523e-05 
       7.53672035e-07       1.55491525e-05      -3.04831548e-05 
      -2.45726608e-07       1.55491514e-05      -3.04831513e-05 
      -7.55486459e-07       1.55491504e-05      -3.04831489e-05 