# vtk DataFile Version 2.0
./output/onsasExample_BladeCantileverBeamNoPitch_windVel3DDynamic 3D/onsasExample_BladeCantileverBeamNoPitch_windVel3DDynamic 3D_0308.vtk
ASCII
DATASET UNSTRUCTURED_GRID

POINTS 800 float
       3.684533e-24      -7.180703e-02      -7.180703e-02 
       2.104574e-23       7.180703e-02      -7.180703e-02 
      -3.684533e-24       7.180703e-02       7.180703e-02 
      -2.104574e-23      -7.180703e-02       7.180703e-02 
       2.000000e-01      -7.180702e-02      -7.180706e-02 
       2.000000e-01       7.180705e-02      -7.180706e-02 
       2.000000e-01       7.180705e-02       7.180701e-02 
       2.000000e-01      -7.180702e-02       7.180701e-02 
       2.000000e-01      -7.180702e-02      -7.180706e-02 
       2.000000e-01       7.180705e-02      -7.180706e-02 
       2.000000e-01       7.180705e-02       7.180701e-02 
       2.000000e-01      -7.180702e-02       7.180701e-02 
       4.000000e-01      -7.180698e-02      -7.180714e-02 
       3.999999e-01       7.180709e-02      -7.180714e-02 
       4.000000e-01       7.180709e-02       7.180692e-02 
       4.000001e-01      -7.180698e-02       7.180692e-02 
       4.000000e-01      -7.180698e-02      -7.180714e-02 
       3.999999e-01       7.180709e-02      -7.180714e-02 
       4.000000e-01       7.180709e-02       7.180692e-02 
       4.000001e-01      -7.180698e-02       7.180692e-02 
       6.000000e-01      -7.180691e-02      -7.180728e-02 
       5.999999e-01       7.180716e-02      -7.180728e-02 
       6.000000e-01       7.180716e-02       7.180678e-02 
       6.000001e-01      -7.180691e-02       7.180678e-02 
       6.000000e-01      -7.180691e-02      -7.180728e-02 
       5.999999e-01       7.180716e-02      -7.180728e-02 
       6.000000e-01       7.180716e-02       7.180678e-02 
       6.000001e-01      -7.180691e-02       7.180678e-02 
       8.000000e-01      -7.180682e-02      -7.180747e-02 
       7.999999e-01       7.180725e-02      -7.180747e-02 
       8.000000e-01       7.180725e-02       7.180659e-02 
       8.000001e-01      -7.180682e-02       7.180659e-02 
       8.000000e-01      -7.180682e-02      -7.180747e-02 
       7.999999e-01       7.180725e-02      -7.180747e-02 
       8.000000e-01       7.180725e-02       7.180659e-02 
       8.000001e-01      -7.180682e-02       7.180659e-02 
       1.000000e+00      -7.180670e-02      -7.180771e-02 
       9.999999e-01       7.180737e-02      -7.180771e-02 
       1.000000e+00       7.180737e-02       7.180635e-02 
       1.000000e+00      -7.180670e-02       7.180635e-02 
       1.000000e+00      -7.180670e-02      -7.180771e-02 
       9.999999e-01       7.180737e-02      -7.180771e-02 
       1.000000e+00       7.180737e-02       7.180635e-02 
       1.000000e+00      -7.180670e-02       7.180635e-02 
       1.200000e+00      -7.180655e-02      -7.180801e-02 
       1.200000e+00       7.180752e-02      -7.180801e-02 
       1.200000e+00       7.180752e-02       7.180606e-02 
       1.200000e+00      -7.180655e-02       7.180606e-02 
       1.200000e+00      -7.180655e-02      -7.180801e-02 
       1.200000e+00       7.180752e-02      -7.180801e-02 
       1.200000e+00       7.180752e-02       7.180606e-02 
       1.200000e+00      -7.180655e-02       7.180606e-02 
       1.400000e+00      -7.180638e-02      -7.180835e-02 
       1.400000e+00       7.180769e-02      -7.180835e-02 
       1.400000e+00       7.180769e-02       7.180571e-02 
       1.400000e+00      -7.180638e-02       7.180571e-02 
       1.400000e+00      -7.180638e-02      -7.180835e-02 
       1.400000e+00       7.180769e-02      -7.180835e-02 
       1.400000e+00       7.180769e-02       7.180571e-02 
       1.400000e+00      -7.180638e-02       7.180571e-02 
       1.600000e+00      -7.180618e-02      -7.180875e-02 
       1.600000e+00       7.180788e-02      -7.180875e-02 
       1.600000e+00       7.180788e-02       7.180532e-02 
       1.600000e+00      -7.180618e-02       7.180532e-02 
       1.600000e+00      -7.180618e-02      -7.180875e-02 
       1.600000e+00       7.180788e-02      -7.180875e-02 
       1.600000e+00       7.180788e-02       7.180532e-02 
       1.600000e+00      -7.180618e-02       7.180532e-02 
       1.800000e+00      -7.180597e-02      -7.180919e-02 
       1.800000e+00       7.180810e-02      -7.180919e-02 
       1.800000e+00       7.180810e-02       7.180488e-02 
       1.800000e+00      -7.180597e-02       7.180488e-02 
       1.800000e+00      -7.180597e-02      -7.180919e-02 
       1.800000e+00       7.180810e-02      -7.180919e-02 
       1.800000e+00       7.180810e-02       7.180488e-02 
       1.800000e+00      -7.180597e-02       7.180488e-02 
       2.000000e+00      -7.180573e-02      -7.180967e-02 
       2.000000e+00       7.180834e-02      -7.180967e-02 
       2.000000e+00       7.180834e-02       7.180439e-02 
       2.000000e+00      -7.180573e-02       7.180439e-02 
       2.000000e+00      -7.180573e-02      -7.180967e-02 
       2.000000e+00       7.180834e-02      -7.180967e-02 
       2.000000e+00       7.180834e-02       7.180439e-02 
       2.000000e+00      -7.180573e-02       7.180439e-02 
       2.200000e+00      -7.180546e-02      -7.181021e-02 
       2.200000e+00       7.180860e-02      -7.181021e-02 
       2.200000e+00       7.180860e-02       7.180386e-02 
       2.200000e+00      -7.180546e-02       7.180386e-02 
       2.200000e+00      -7.180546e-02      -7.181021e-02 
       2.200000e+00       7.180860e-02      -7.181021e-02 
       2.200000e+00       7.180860e-02       7.180386e-02 
       2.200000e+00      -7.180546e-02       7.180386e-02 
       2.400000e+00      -7.180518e-02      -7.181078e-02 
       2.400000e+00       7.180889e-02      -7.181078e-02 
       2.400000e+00       7.180889e-02       7.180328e-02 
       2.400000e+00      -7.180518e-02       7.180328e-02 
       2.400000e+00      -7.180518e-02      -7.181078e-02 
       2.400000e+00       7.180889e-02      -7.181078e-02 
       2.400000e+00       7.180889e-02       7.180328e-02 
       2.400000e+00      -7.180518e-02       7.180328e-02 
       2.600000e+00      -7.180487e-02      -7.181141e-02 
       2.600000e+00       7.180920e-02      -7.181141e-02 
       2.600000e+00       7.180920e-02       7.180266e-02 
       2.600000e+00      -7.180487e-02       7.180266e-02 
       2.600000e+00      -7.180487e-02      -7.181141e-02 
       2.600000e+00       7.180920e-02      -7.181141e-02 
       2.600000e+00       7.180920e-02       7.180266e-02 
       2.600000e+00      -7.180487e-02       7.180266e-02 
       2.800000e+00      -7.180454e-02      -7.181207e-02 
       2.800000e+00       7.180953e-02      -7.181207e-02 
       2.800000e+00       7.180953e-02       7.180199e-02 
       2.800000e+00      -7.180454e-02       7.180199e-02 
       2.800000e+00      -7.180454e-02      -7.181207e-02 
       2.800000e+00       7.180953e-02      -7.181207e-02 
       2.800000e+00       7.180953e-02       7.180199e-02 
       2.800000e+00      -7.180454e-02       7.180199e-02 
       3.000000e+00      -7.180419e-02      -7.181278e-02 
       3.000000e+00       7.180988e-02      -7.181278e-02 
       3.000000e+00       7.180988e-02       7.180129e-02 
       3.000000e+00      -7.180419e-02       7.180129e-02 
       3.000000e+00      -7.180419e-02      -7.181278e-02 
       3.000000e+00       7.180988e-02      -7.181278e-02 
       3.000000e+00       7.180988e-02       7.180129e-02 
       3.000000e+00      -7.180419e-02       7.180129e-02 
       3.200000e+00      -7.180382e-02      -7.181353e-02 
       3.200000e+00       7.181025e-02      -7.181353e-02 
       3.200000e+00       7.181025e-02       7.180054e-02 
       3.200000e+00      -7.180382e-02       7.180054e-02 
       3.200000e+00      -7.180382e-02      -7.181353e-02 
       3.200000e+00       7.181025e-02      -7.181353e-02 
       3.200000e+00       7.181025e-02       7.180054e-02 
       3.200000e+00      -7.180382e-02       7.180054e-02 
       3.400000e+00      -7.180343e-02      -7.181432e-02 
       3.400000e+00       7.181064e-02      -7.181432e-02 
       3.400000e+00       7.181064e-02       7.179975e-02 
       3.400000e+00      -7.180343e-02       7.179975e-02 
       3.400000e+00      -7.180343e-02      -7.181432e-02 
       3.400000e+00       7.181064e-02      -7.181432e-02 
       3.400000e+00       7.181064e-02       7.179975e-02 
       3.400000e+00      -7.180343e-02       7.179975e-02 
       3.600000e+00      -7.180302e-02      -7.181514e-02 
       3.600000e+00       7.181105e-02      -7.181514e-02 
       3.600000e+00       7.181105e-02       7.179892e-02 
       3.600000e+00      -7.180302e-02       7.179892e-02 
       3.600000e+00      -7.180302e-02      -7.181514e-02 
       3.600000e+00       7.181105e-02      -7.181514e-02 
       3.600000e+00       7.181105e-02       7.179892e-02 
       3.600000e+00      -7.180302e-02       7.179892e-02 
       3.800000e+00      -7.180259e-02      -7.181601e-02 
       3.800000e+00       7.181147e-02      -7.181601e-02 
       3.800000e+00       7.181147e-02       7.179806e-02 
       3.800000e+00      -7.180259e-02       7.179806e-02 
       3.800000e+00      -7.180259e-02      -7.181601e-02 
       3.800000e+00       7.181147e-02      -7.181601e-02 
       3.800000e+00       7.181147e-02       7.179806e-02 
       3.800000e+00      -7.180259e-02       7.179806e-02 
       4.000000e+00      -7.180215e-02      -7.181691e-02 
       4.000000e+00       7.181192e-02      -7.181691e-02 
       4.000000e+00       7.181192e-02       7.179715e-02 
       4.000000e+00      -7.180215e-02       7.179715e-02 
       4.000000e+00      -7.180215e-02      -7.181691e-02 
       4.000000e+00       7.181192e-02      -7.181691e-02 
       4.000000e+00       7.181192e-02       7.179715e-02 
       4.000000e+00      -7.180215e-02       7.179715e-02 
       4.200000e+00      -7.180168e-02      -7.181785e-02 
[...]
POINT_DATA       800 
VECTORS Displacements float
       3.68453324e-24      -1.38777878e-17      -1.38777878e-17 
       2.10457444e-23       1.38777878e-17       0.00000000e+00 
      -3.68453324e-24       1.38777878e-17       1.38777878e-17 
      -2.10457444e-23      -1.38777878e-17       0.00000000e+00 
      -1.01356973e-08       1.38679472e-08      -2.79716085e-08 
      -2.99888346e-08       1.38679459e-08      -2.79715718e-08 
       1.00571010e-08       1.38679147e-08      -2.79715773e-08 
       2.99102383e-08       1.38679161e-08      -2.79716141e-08 
      -1.01356973e-08       1.38679472e-08      -2.79716085e-08 
      -2.99888346e-08       1.38679459e-08      -2.79715718e-08 
       1.00571010e-08       1.38679147e-08      -2.79715773e-08 
       2.99102383e-08       1.38679161e-08      -2.79716141e-08 
      -2.00853533e-08       5.51199103e-08      -1.11188940e-07 
      -5.94126538e-08       5.51199049e-08      -1.11188861e-07 
       1.99279791e-08       5.51198479e-08      -1.11188883e-07 
       5.92552796e-08       5.51198532e-08      -1.11188962e-07 
      -2.00853533e-08       5.51199103e-08      -1.11188940e-07 
      -5.94126538e-08       5.51199049e-08      -1.11188861e-07 
       1.99279791e-08       5.51198479e-08      -1.11188883e-07 
       5.92552796e-08       5.51198532e-08      -1.11188962e-07 
      -2.98489662e-08       1.23228122e-07      -2.48605804e-07 
      -8.82714558e-08       1.23228110e-07      -2.48605678e-07 
       2.96126360e-08       1.23228032e-07      -2.48605726e-07 
       8.80351256e-08       1.23228044e-07      -2.48605852e-07 
      -2.98489662e-08       1.23228122e-07      -2.48605804e-07 
      -8.82714558e-08       1.23228110e-07      -2.48605678e-07 
       2.96126360e-08       1.23228032e-07      -2.48605726e-07 
       8.80351256e-08       1.23228044e-07      -2.48605852e-07 
      -3.94265345e-08       2.17664815e-07      -4.39176010e-07 
      -1.16565239e-07       2.17664794e-07      -4.39175832e-07 
       3.91110732e-08       2.17664700e-07      -4.39175917e-07 
       1.16249778e-07       2.17664721e-07      -4.39176094e-07 
      -3.94265345e-08       2.17664815e-07      -4.39176010e-07 
      -1.16565239e-07       2.17664794e-07      -4.39175832e-07 
       3.91110732e-08       2.17664700e-07      -4.39175917e-07 
       1.16249778e-07       2.17664721e-07      -4.39176094e-07 
      -4.88180564e-08       3.37902221e-07      -6.81853368e-07 
      -1.44294002e-07       3.37902190e-07      -6.81853134e-07 
       4.84232927e-08       3.37902084e-07      -6.81853263e-07 
       1.43899239e-07       3.37902116e-07      -6.81853497e-07 
      -4.88180564e-08       3.37902221e-07      -6.81853368e-07 
      -1.44294002e-07       3.37902190e-07      -6.81853134e-07 
       4.84232927e-08       3.37902084e-07      -6.81853263e-07 
       1.43899239e-07       3.37902116e-07      -6.81853497e-07 
      -5.80235298e-08       4.83412575e-07      -9.75591687e-07 
      -1.71457742e-07       4.83412530e-07      -9.75591393e-07 
       5.75492964e-08       4.83412417e-07      -9.75591576e-07 
       1.70983509e-07       4.83412462e-07      -9.75591870e-07 
      -5.80235298e-08       4.83412575e-07      -9.75591687e-07 
      -1.71457742e-07       4.83412530e-07      -9.75591393e-07 
       5.75492964e-08       4.83412417e-07      -9.75591576e-07 
       1.70983509e-07       4.83412462e-07      -9.75591870e-07 
      -6.70429534e-08       6.53668108e-07      -1.31934478e-06 
      -1.98056459e-07       6.53668048e-07      -1.31934442e-06 
       6.64890856e-08       6.53667931e-07      -1.31934466e-06 
       1.97502591e-07       6.53667991e-07      -1.31934502e-06 
      -6.70429534e-08       6.53668108e-07      -1.31934478e-06 
      -1.98056459e-07       6.53668048e-07      -1.31934442e-06 
       6.64890856e-08       6.53667931e-07      -1.31934466e-06 
       1.97502591e-07       6.53667991e-07      -1.31934502e-06 
      -7.58763252e-08       8.48141053e-07      -1.71206645e-06 
      -2.24090150e-07       8.48140976e-07      -1.71206602e-06 
       7.52426619e-08       8.48140859e-07      -1.71206634e-06 
       2.23456486e-07       8.48140936e-07      -1.71206676e-06 
      -7.58763252e-08       8.48141053e-07      -1.71206645e-06 
      -2.24090150e-07       8.48140976e-07      -1.71206602e-06 
       7.52426619e-08       8.48140859e-07      -1.71206634e-06 
       2.23456486e-07       8.48140936e-07      -1.71206676e-06 
      -8.45236439e-08       1.06630364e-06      -2.15271051e-06 
      -2.49558813e-07       1.06630355e-06      -2.15271001e-06 
       8.38100274e-08       1.06630343e-06      -2.15271040e-06 
       2.48845196e-07       1.06630353e-06      -2.15271090e-06 
      -8.45236439e-08       1.06630364e-06      -2.15271051e-06 
      -2.49558813e-07       1.06630355e-06      -2.15271001e-06 
       8.38100274e-08       1.06630343e-06      -2.15271040e-06 
       2.48845196e-07       1.06630353e-06      -2.15271090e-06 
      -9.29849071e-08       1.30762811e-06      -2.64023077e-06 
      -2.74462447e-07       1.30762800e-06      -2.64023020e-06 
       9.21911840e-08       1.30762789e-06      -2.64023067e-06 
       2.73668724e-07       1.30762800e-06      -2.64023124e-06 
      -9.29849071e-08       1.30762811e-06      -2.64023077e-06 
      -2.74462447e-07       1.30762800e-06      -2.64023020e-06 
       9.21911840e-08       1.30762789e-06      -2.64023067e-06 
       2.73668723e-07       1.30762800e-06      -2.64023124e-06 
      -1.01253943e-07       1.57159604e-06      -3.17359860e-06 
      -2.98814874e-07       1.57159590e-06      -3.17359796e-06 
       1.00409745e-07       1.57159582e-06      -3.17359852e-06 
       2.97970676e-07       1.57159595e-06      -3.17359915e-06 
      -1.01253943e-07       1.57159604e-06      -3.17359860e-06 
      -2.98814874e-07       1.57159590e-06      -3.17359796e-06 
       1.00409745e-07       1.57159582e-06      -3.17359852e-06 
       2.97970676e-07       1.57159595e-06      -3.17359915e-06 
      -1.09354032e-07       1.85772555e-06      -3.75185343e-06 
      -3.22658731e-07       1.85772540e-06      -3.75185273e-06 
       1.08458955e-07       1.85772534e-06      -3.75185337e-06 
       3.21763654e-07       1.85772549e-06      -3.75185407e-06 
      -1.09354032e-07       1.85772555e-06      -3.75185343e-06 
      -3.22658731e-07       1.85772540e-06      -3.75185273e-06 
       1.08458955e-07       1.85772534e-06      -3.75185337e-06 
       3.21763654e-07       1.85772549e-06      -3.75185407e-06 
      -1.17285170e-07       2.16554369e-06      -4.37405117e-06 
      -3.45994013e-07       2.16554351e-06      -4.37405040e-06 
       1.16338819e-07       2.16554348e-06      -4.37405115e-06 
       3.45047662e-07       2.16554366e-06      -4.37405192e-06 
      -1.17285170e-07       2.16554369e-06      -4.37405117e-06 
      -3.45994013e-07       2.16554351e-06      -4.37405040e-06 
       1.16338819e-07       2.16554348e-06      -4.37405115e-06 
       3.45047662e-07       2.16554366e-06      -4.37405192e-06 
      -1.25047354e-07       2.49457748e-06      -5.03924775e-06 
      -3.68820718e-07       2.49457728e-06      -5.03924691e-06 
       1.24049341e-07       2.49457727e-06      -5.03924776e-06 
       3.67822704e-07       2.49457748e-06      -5.03924860e-06 
      -1.25047354e-07       2.49457748e-06      -5.03924775e-06 
      -3.68820718e-07       2.49457728e-06      -5.03924691e-06 
       1.24049341e-07       2.49457727e-06      -5.03924776e-06 
       3.67822704e-07       2.49457748e-06      -5.03924860e-06 
      -1.32640579e-07       2.84435396e-06      -5.74649908e-06 
      -3.91138839e-07       2.84435373e-06      -5.74649816e-06 
       1.31590524e-07       2.84435376e-06      -5.74649912e-06 
       3.90088783e-07       2.84435399e-06      -5.74650003e-06 
      -1.32640579e-07       2.84435396e-06      -5.74649908e-06 
      -3.91138839e-07       2.84435373e-06      -5.74649816e-06 
       1.31590524e-07       2.84435376e-06      -5.74649912e-06 
       3.90088783e-07       2.84435399e-06      -5.74650003e-06 
      -1.40064842e-07       3.21440016e-06      -6.49486106e-06 
      -4.12948373e-07       3.21439990e-06      -6.49486007e-06 
       1.38962375e-07       3.21439996e-06      -6.49486113e-06 
       4.11845907e-07       3.21440022e-06      -6.49486212e-06 
      -1.40064842e-07       3.21440016e-06      -6.49486106e-06 
      -4.12948373e-07       3.21439990e-06      -6.49486007e-06 
       1.38962375e-07       3.21439996e-06      -6.49486113e-06 
       4.11845907e-07       3.21440022e-06      -6.49486212e-06 
      -1.47320136e-07       3.60424310e-06      -7.28338961e-06 
      -4.34249316e-07       3.60424282e-06      -7.28338855e-06 
       1.46164897e-07       3.60424292e-06      -7.28338973e-06 
       4.33094076e-07       3.60424320e-06      -7.28339079e-06 
      -1.47320136e-07       3.60424310e-06      -7.28338961e-06 
      -4.34249316e-07       3.60424282e-06      -7.28338855e-06 
       1.46164897e-07       3.60424292e-06      -7.28338973e-06 
       4.33094076e-07       3.60424320e-06      -7.28339079e-06 
      -1.54406458e-07       4.01340984e-06      -8.11114065e-06 
      -4.55041662e-07       4.01340952e-06      -8.11113952e-06 
       1.53198093e-07       4.01340966e-06      -8.11114080e-06 
       4.53833297e-07       4.01340997e-06      -8.11114194e-06 
      -1.54406458e-07       4.01340984e-06      -8.11114065e-06 
      -4.55041662e-07       4.01340952e-06      -8.11113952e-06 
       1.53198093e-07       4.01340966e-06      -8.11114080e-06 
       4.53833297e-07       4.01340997e-06      -8.11114194e-06 
      -1.61323804e-07       4.44142739e-06      -8.97717009e-06 
      -4.75325409e-07       4.44142704e-06      -8.97716888e-06 
       1.60061969e-07       4.44142722e-06      -8.97717028e-06 
       4.74063573e-07       4.44142756e-06      -8.97717150e-06 
      -1.61323804e-07       4.44142739e-06      -8.97717009e-06 
      -4.75325409e-07       4.44142704e-06      -8.97716888e-06 
       1.60061969e-07       4.44142722e-06      -8.97717028e-06 
       4.74063573e-07       4.44142756e-06      -8.97717150e-06 
      -1.68072170e-07       4.88782278e-06      -9.88053384e-06 
      -4.95100552e-07       4.88782241e-06      -9.88053255e-06 
       1.66756528e-07       4.88782262e-06      -9.88053407e-06 
       4.93784910e-07       4.88782300e-06      -9.88053537e-06 
      -1.68072170e-07       4.88782278e-06      -9.88053384e-06 
      -4.95100552e-07       4.88782241e-06      -9.88053255e-06 
       1.66756528e-07       4.88782262e-06      -9.88053407e-06 
       4.93784909e-07       4.88782300e-06      -9.88053537e-06 
      -1.74649204e-07       5.35213212e-06      -1.08203042e-05 
      -5.14384284e-07       5.35213172e-06      -1.08203029e-05 
       1.73300416e-07       5.35213198e-06      -1.08203045e-05 
       5.13035496e-07       5.35213238e-06      -1.08203059e-05 
      -1.74649204e-07       5.35213212e-06      -1.08203042e-05 
      -5.14384284e-07       5.35213172e-06      -1.08203029e-05 
       1.73300416e-07       5.35213198e-06      -1.08203045e-05 
       5.13035496e-07       5.35213238e-06      -1.08203059e-05 
      -1.81074577e-07       5.83392788e-06      -1.17956219e-05 
      -5.33215909e-07       5.83392745e-06      -1.17956205e-05 
       1.79692162e-07       5.83392776e-06      -1.17956223e-05 
       5.31833494e-07       5.83392819e-06      -1.17956237e-05 
      -1.81074577e-07       5.83392788e-06      -1.17956219e-05 
      -5.33215909e-07       5.83392745e-06      -1.17956205e-05 
       1.79692162e-07       5.83392776e-06      -1.17956223e-05 
       5.31833494e-07       5.83392819e-06      -1.17956237e-05 
      -1.87348282e-07       6.33279164e-06      -1.28056455e-05 
      -5.51595420e-07       6.33279118e-06      -1.28056440e-05 
       1.85931771e-07       6.33279154e-06      -1.28056459e-05 
       5.50178910e-07       6.33279200e-06      -1.28056474e-05 
      -1.87348282e-07       6.33279164e-06      -1.28056455e-05 
      -5.51595420e-07       6.33279118e-06      -1.28056440e-05 
       1.85931771e-07       6.33279154e-06      -1.28056459e-05 
       5.50178910e-07       6.33279200e-06      -1.28056474e-05 
      -1.93470317e-07       6.84830500e-06      -1.38495335e-05 
      -5.69522815e-07       6.84830451e-06      -1.38495319e-05 
       1.92019250e-07       6.84830491e-06      -1.38495339e-05 
       5.68071749e-07       6.84830541e-06      -1.38495355e-05 
      -1.93470317e-07       6.84830500e-06      -1.38495335e-05 
      -5.69522815e-07       6.84830451e-06      -1.38495319e-05 
       1.92019250e-07       6.84830491e-06      -1.38495339e-05 
       5.68071749e-07       6.84830541e-06      -1.38495355e-05 
      -1.99440674e-07       7.38004955e-06      -1.49264443e-05 
      -5.86998086e-07       7.38004902e-06      -1.49264426e-05 
       1.97954604e-07       7.38004948e-06      -1.49264448e-05 
       5.85512016e-07       7.38005001e-06      -1.49264464e-05 
      -1.99440674e-07       7.38004955e-06      -1.49264443e-05 
      -5.86998086e-07       7.38004902e-06      -1.49264426e-05 
       1.97954604e-07       7.38004948e-06      -1.49264448e-05 
       5.85512016e-07       7.38005001e-06      -1.49264464e-05 
      -2.05259346e-07       7.92760688e-06      -1.60355365e-05 
      -6.04021226e-07       7.92760633e-06      -1.60355348e-05 
       2.03737839e-07       7.92760684e-06      -1.60355371e-05 
       6.02499719e-07       7.92760739e-06      -1.60355388e-05 
      -2.05259346e-07       7.92760688e-06      -1.60355365e-05 
      -6.04021226e-07       7.92760633e-06      -1.60355348e-05 
       2.03737839e-07       7.92760684e-06      -1.60355371e-05 
       6.02499719e-07       7.92760739e-06      -1.60355388e-05 
      -2.10926332e-07       8.49055859e-06      -1.71759686e-05 
      -6.20592232e-07       8.49055801e-06      -1.71759668e-05 
       2.09368960e-07       8.49055857e-06      -1.71759692e-05 
       6.19034861e-07       8.49055915e-06      -1.71759710e-05 
      -2.10926332e-07       8.49055859e-06      -1.71759686e-05 
      -6.20592232e-07       8.49055801e-06      -1.71759668e-05 
       2.09368960e-07       8.49055857e-06      -1.71759692e-05 
       6.19034861e-07       8.49055915e-06      -1.71759710e-05 
      -2.16441620e-07       9.06848627e-06      -1.83468991e-05 
      -6.36711095e-07       9.06848565e-06      -1.83468973e-05 
       2.14847975e-07       9.06848626e-06      -1.83468998e-05 
       6.35117451e-07       9.06848688e-06      -1.83469017e-05 
      -2.16441620e-07       9.06848627e-06      -1.83468991e-05 
      -6.36711095e-07       9.06848565e-06      -1.83468973e-05 
       2.14847975e-07       9.06848626e-06      -1.83468998e-05 
       6.35117451e-07       9.06848688e-06      -1.83469017e-05 
      -2.21805209e-07       9.66097150e-06      -1.95474866e-05 
      -6.52377813e-07       9.66097086e-06      -1.95474846e-05 
       2.20174887e-07       9.66097152e-06      -1.95474873e-05 
       6.50747491e-07       9.66097217e-06      -1.95474892e-05 
      -2.21805209e-07       9.66097150e-06      -1.95474866e-05 
      -6.52377813e-07       9.66097086e-06      -1.95474846e-05 
       2.20174887e-07       9.66097152e-06      -1.95474873e-05 
       6.50747491e-07       9.66097217e-06      -1.95474892e-05 
      -2.27017091e-07       1.02675959e-05      -2.07768895e-05 
      -6.67592379e-07       1.02675952e-05      -2.07768874e-05 
       2.25349702e-07       1.02675959e-05      -2.07768902e-05 
       6.65924990e-07       1.02675966e-05      -2.07768922e-05 
      -2.27017091e-07       1.02675959e-05      -2.07768895e-05 
      -6.67592379e-07       1.02675952e-05      -2.07768874e-05 
       2.25349702e-07       1.02675959e-05      -2.07768902e-05 
       6.65924989e-07       1.02675966e-05      -2.07768922e-05 
      -2.32078649e-07       1.08879500e-05      -2.20342827e-05 
      -6.82375672e-07       1.08879493e-05      -2.20342806e-05 
       2.30387820e-07       1.08879501e-05      -2.20342835e-05 
       6.80684844e-07       1.08879508e-05      -2.20342856e-05 
      -2.32078649e-07       1.08879500e-05      -2.20342827e-05 
      -6.82375672e-07       1.08879493e-05      -2.20342806e-05 
       2.30387820e-07       1.08879501e-05      -2.20342835e-05 
       6.80684844e-07       1.08879508e-05      -2.20342856e-05 
      -2.37006708e-07       1.15216611e-05      -2.33189117e-05 
      -6.96764391e-07       1.15216603e-05      -2.33189096e-05 
       2.35291978e-07       1.15216612e-05      -2.33189126e-05 
       6.95049660e-07       1.15216619e-05      -2.33189147e-05 
      -2.37006708e-07       1.15216611e-05      -2.33189117e-05 
      -6.96764391e-07       1.15216603e-05      -2.33189096e-05 
       2.35291978e-07       1.15216612e-05      -2.33189126e-05 
       6.95049660e-07       1.15216619e-05      -2.33189147e-05 
      -2.41801263e-07       1.21683655e-05      -2.46300403e-05 
      -7.10758530e-07       1.21683647e-05      -2.46300381e-05 
       2.40062181e-07       1.21683656e-05      -2.46300413e-05 
       7.09019448e-07       1.21683663e-05      -2.46300435e-05 
      -2.41801263e-07       1.21683655e-05      -2.46300403e-05 
      -7.10758530e-07       1.21683647e-05      -2.46300381e-05 
       2.40062181e-07       1.21683656e-05      -2.46300413e-05 
       7.09019448e-07       1.21683663e-05      -2.46300435e-05 
      -2.46462309e-07       1.28276996e-05      -2.59669326e-05 
      -7.24358084e-07       1.28276988e-05      -2.59669303e-05 
       2.44698434e-07       1.28276997e-05      -2.59669335e-05 
       7.22594209e-07       1.28277005e-05      -2.59669358e-05 
      -2.46462309e-07       1.28276996e-05      -2.59669326e-05 
      -7.24358084e-07       1.28276988e-05      -2.59669303e-05 
       2.44698434e-07       1.28276997e-05      -2.59669335e-05 
       7.22594209e-07       1.28277005e-05      -2.59669358e-05 
      -2.50989839e-07       1.34992999e-05      -2.73288523e-05 
      -7.37563045e-07       1.34992990e-05      -2.73288500e-05 
       2.49200745e-07       1.34993000e-05      -2.73288534e-05 
       7.35773952e-07       1.34993008e-05      -2.73288557e-05 
      -2.50989839e-07       1.34992999e-05      -2.73288523e-05 
      -7.37563045e-07       1.34992990e-05      -2.73288500e-05 
       2.49200745e-07       1.34993000e-05      -2.73288534e-05 
       7.35773952e-07       1.34993008e-05      -2.73288557e-05 
      -2.55383847e-07       1.41828027e-05      -2.87150636e-05 
      -7.50373409e-07       1.41828019e-05      -2.87150612e-05 
       2.53569120e-07       1.41828029e-05      -2.87150647e-05 
       7.48558683e-07       1.41828038e-05      -2.87150671e-05 
      -2.55383847e-07       1.41828027e-05      -2.87150636e-05 
      -7.50373409e-07       1.41828019e-05      -2.87150612e-05 
       2.53569120e-07       1.41828029e-05      -2.87150647e-05 
       7.48558683e-07       1.41828038e-05      -2.87150671e-05 
      -2.59644324e-07       1.48778446e-05      -3.01248303e-05 
      -7.62789166e-07       1.48778437e-05      -3.01248278e-05 
       2.57803566e-07       1.48778448e-05      -3.01248315e-05 
       7.60948408e-07       1.48778457e-05      -3.01248339e-05 
      -2.59644324e-07       1.48778446e-05      -3.01248303e-05 
      -7.62789166e-07       1.48778437e-05      -3.01248278e-05 
       2.57803566e-07       1.48778448e-05      -3.01248315e-05 
       7.60948408e-07       1.48778457e-05      -3.01248339e-05 
      -2.63771266e-07       1.55840619e-05      -3.15574164e-05 
      -7.74810312e-07       1.55840610e-05      -3.15574139e-05 
       2.61904089e-07       1.55840621e-05      -3.15574176e-05 
       7.72943133e-07       1.55840630e-05      -3.15574202e-05 
      -2.63771266e-07       1.55840619e-05      -3.15574164e-05 
      -7.74810312e-07       1.55840610e-05      -3.15574139e-05 