# vtk DataFile Version 2.0
./output/onsasExample_BladeCantileverBeamNoPitch_windVel3DDynamic 3D/onsasExample_BladeCantileverBeamNoPitch_windVel3DDynamic 3D_0162.vtk
ASCII
DATASET UNSTRUCTURED_GRID

POINTS 800 float
       2.448230e-23      -7.180703e-02      -7.180703e-02 
       3.396388e-23       7.180703e-02      -7.180703e-02 
      -2.448230e-23       7.180703e-02       7.180703e-02 
      -3.396388e-23      -7.180703e-02       7.180703e-02 
       2.000000e-01      -7.180702e-02      -7.180706e-02 
       2.000000e-01       7.180705e-02      -7.180706e-02 
       2.000000e-01       7.180705e-02       7.180701e-02 
       2.000000e-01      -7.180702e-02       7.180701e-02 
       2.000000e-01      -7.180702e-02      -7.180706e-02 
       2.000000e-01       7.180705e-02      -7.180706e-02 
       2.000000e-01       7.180705e-02       7.180701e-02 
       2.000000e-01      -7.180702e-02       7.180701e-02 
       4.000000e-01      -7.180698e-02      -7.180714e-02 
       3.999999e-01       7.180709e-02      -7.180714e-02 
       4.000000e-01       7.180709e-02       7.180693e-02 
       4.000001e-01      -7.180698e-02       7.180693e-02 
       4.000000e-01      -7.180698e-02      -7.180714e-02 
       3.999999e-01       7.180709e-02      -7.180714e-02 
       4.000000e-01       7.180709e-02       7.180693e-02 
       4.000001e-01      -7.180698e-02       7.180693e-02 
       6.000000e-01      -7.180691e-02      -7.180727e-02 
       5.999999e-01       7.180716e-02      -7.180727e-02 
       6.000000e-01       7.180716e-02       7.180680e-02 
       6.000001e-01      -7.180691e-02       7.180680e-02 
       6.000000e-01      -7.180691e-02      -7.180727e-02 
       5.999999e-01       7.180716e-02      -7.180727e-02 
       6.000000e-01       7.180716e-02       7.180680e-02 
       6.000001e-01      -7.180691e-02       7.180680e-02 
       8.000000e-01      -7.180682e-02      -7.180745e-02 
       7.999999e-01       7.180725e-02      -7.180745e-02 
       8.000000e-01       7.180725e-02       7.180661e-02 
       8.000001e-01      -7.180682e-02       7.180661e-02 
       8.000000e-01      -7.180682e-02      -7.180745e-02 
       7.999999e-01       7.180725e-02      -7.180745e-02 
       8.000000e-01       7.180725e-02       7.180661e-02 
       8.000001e-01      -7.180682e-02       7.180661e-02 
       1.000000e+00      -7.180670e-02      -7.180769e-02 
       9.999999e-01       7.180737e-02      -7.180769e-02 
       1.000000e+00       7.180737e-02       7.180638e-02 
       1.000000e+00      -7.180670e-02       7.180638e-02 
       1.000000e+00      -7.180670e-02      -7.180769e-02 
       9.999999e-01       7.180737e-02      -7.180769e-02 
       1.000000e+00       7.180737e-02       7.180638e-02 
       1.000000e+00      -7.180670e-02       7.180638e-02 
       1.200000e+00      -7.180655e-02      -7.180797e-02 
       1.200000e+00       7.180751e-02      -7.180797e-02 
       1.200000e+00       7.180751e-02       7.180610e-02 
       1.200000e+00      -7.180655e-02       7.180610e-02 
       1.200000e+00      -7.180655e-02      -7.180797e-02 
       1.200000e+00       7.180751e-02      -7.180797e-02 
       1.200000e+00       7.180751e-02       7.180610e-02 
       1.200000e+00      -7.180655e-02       7.180610e-02 
       1.400000e+00      -7.180638e-02      -7.180829e-02 
       1.400000e+00       7.180768e-02      -7.180829e-02 
       1.400000e+00       7.180768e-02       7.180577e-02 
       1.400000e+00      -7.180638e-02       7.180577e-02 
       1.400000e+00      -7.180638e-02      -7.180829e-02 
       1.400000e+00       7.180768e-02      -7.180829e-02 
       1.400000e+00       7.180768e-02       7.180577e-02 
       1.400000e+00      -7.180638e-02       7.180577e-02 
       1.600000e+00      -7.180619e-02      -7.180867e-02 
       1.600000e+00       7.180787e-02      -7.180867e-02 
       1.600000e+00       7.180787e-02       7.180540e-02 
       1.600000e+00      -7.180619e-02       7.180540e-02 
       1.600000e+00      -7.180619e-02      -7.180867e-02 
       1.600000e+00       7.180787e-02      -7.180867e-02 
       1.600000e+00       7.180787e-02       7.180540e-02 
       1.600000e+00      -7.180619e-02       7.180540e-02 
       1.800000e+00      -7.180597e-02      -7.180909e-02 
       1.800000e+00       7.180809e-02      -7.180909e-02 
       1.800000e+00       7.180809e-02       7.180498e-02 
       1.800000e+00      -7.180597e-02       7.180498e-02 
       1.800000e+00      -7.180597e-02      -7.180909e-02 
       1.800000e+00       7.180809e-02      -7.180909e-02 
       1.800000e+00       7.180809e-02       7.180498e-02 
       1.800000e+00      -7.180597e-02       7.180498e-02 
       2.000000e+00      -7.180574e-02      -7.180956e-02 
       2.000000e+00       7.180833e-02      -7.180956e-02 
       2.000000e+00       7.180833e-02       7.180451e-02 
       2.000000e+00      -7.180574e-02       7.180451e-02 
       2.000000e+00      -7.180574e-02      -7.180956e-02 
       2.000000e+00       7.180833e-02      -7.180956e-02 
       2.000000e+00       7.180833e-02       7.180451e-02 
       2.000000e+00      -7.180574e-02       7.180451e-02 
       2.200000e+00      -7.180547e-02      -7.181007e-02 
       2.200000e+00       7.180859e-02      -7.181007e-02 
       2.200000e+00       7.180859e-02       7.180400e-02 
       2.200000e+00      -7.180547e-02       7.180400e-02 
       2.200000e+00      -7.180547e-02      -7.181007e-02 
       2.200000e+00       7.180859e-02      -7.181007e-02 
       2.200000e+00       7.180859e-02       7.180400e-02 
       2.200000e+00      -7.180547e-02       7.180400e-02 
       2.400000e+00      -7.180519e-02      -7.181062e-02 
       2.400000e+00       7.180888e-02      -7.181062e-02 
       2.400000e+00       7.180888e-02       7.180345e-02 
       2.400000e+00      -7.180519e-02       7.180345e-02 
       2.400000e+00      -7.180519e-02      -7.181062e-02 
       2.400000e+00       7.180888e-02      -7.181062e-02 
       2.400000e+00       7.180888e-02       7.180345e-02 
       2.400000e+00      -7.180519e-02       7.180345e-02 
       2.600000e+00      -7.180488e-02      -7.181121e-02 
       2.600000e+00       7.180918e-02      -7.181121e-02 
       2.600000e+00       7.180918e-02       7.180285e-02 
       2.600000e+00      -7.180488e-02       7.180285e-02 
       2.600000e+00      -7.180488e-02      -7.181121e-02 
       2.600000e+00       7.180918e-02      -7.181121e-02 
       2.600000e+00       7.180918e-02       7.180285e-02 
       2.600000e+00      -7.180488e-02       7.180285e-02 
       2.800000e+00      -7.180456e-02      -7.181185e-02 
       2.800000e+00       7.180951e-02      -7.181185e-02 
       2.800000e+00       7.180951e-02       7.180222e-02 
       2.800000e+00      -7.180456e-02       7.180222e-02 
       2.800000e+00      -7.180456e-02      -7.181185e-02 
       2.800000e+00       7.180951e-02      -7.181185e-02 
       2.800000e+00       7.180951e-02       7.180222e-02 
       2.800000e+00      -7.180456e-02       7.180222e-02 
       3.000000e+00      -7.180421e-02      -7.181252e-02 
       3.000000e+00       7.180986e-02      -7.181252e-02 
       3.000000e+00       7.180986e-02       7.180154e-02 
       3.000000e+00      -7.180421e-02       7.180154e-02 
       3.000000e+00      -7.180421e-02      -7.181252e-02 
       3.000000e+00       7.180986e-02      -7.181252e-02 
       3.000000e+00       7.180986e-02       7.180154e-02 
       3.000000e+00      -7.180421e-02       7.180154e-02 
       3.200000e+00      -7.180384e-02      -7.181324e-02 
       3.200000e+00       7.181022e-02      -7.181324e-02 
       3.200000e+00       7.181022e-02       7.180083e-02 
       3.200000e+00      -7.180384e-02       7.180083e-02 
       3.200000e+00      -7.180384e-02      -7.181324e-02 
       3.200000e+00       7.181022e-02      -7.181324e-02 
       3.200000e+00       7.181022e-02       7.180083e-02 
       3.200000e+00      -7.180384e-02       7.180083e-02 
       3.400000e+00      -7.180346e-02      -7.181399e-02 
       3.400000e+00       7.181061e-02      -7.181399e-02 
       3.400000e+00       7.181061e-02       7.180008e-02 
       3.400000e+00      -7.180346e-02       7.180008e-02 
       3.400000e+00      -7.180346e-02      -7.181399e-02 
       3.400000e+00       7.181061e-02      -7.181399e-02 
       3.400000e+00       7.181061e-02       7.180008e-02 
       3.400000e+00      -7.180346e-02       7.180008e-02 
       3.600000e+00      -7.180305e-02      -7.181478e-02 
       3.600000e+00       7.181101e-02      -7.181478e-02 
       3.600000e+00       7.181101e-02       7.179929e-02 
       3.600000e+00      -7.180305e-02       7.179929e-02 
       3.600000e+00      -7.180305e-02      -7.181478e-02 
       3.600000e+00       7.181101e-02      -7.181478e-02 
       3.600000e+00       7.181101e-02       7.179929e-02 
       3.600000e+00      -7.180305e-02       7.179929e-02 
       3.800000e+00      -7.180263e-02      -7.181561e-02 
       3.800000e+00       7.181144e-02      -7.181561e-02 
       3.800000e+00       7.181144e-02       7.179846e-02 
       3.800000e+00      -7.180263e-02       7.179846e-02 
       3.800000e+00      -7.180263e-02      -7.181561e-02 
       3.800000e+00       7.181144e-02      -7.181561e-02 
       3.800000e+00       7.181144e-02       7.179846e-02 
       3.800000e+00      -7.180263e-02       7.179846e-02 
       4.000000e+00      -7.180218e-02      -7.181647e-02 
       4.000000e+00       7.181188e-02      -7.181647e-02 
       4.000000e+00       7.181188e-02       7.179760e-02 
       4.000000e+00      -7.180218e-02       7.179760e-02 
       4.000000e+00      -7.180218e-02      -7.181647e-02 
       4.000000e+00       7.181188e-02      -7.181647e-02 
       4.000000e+00       7.181188e-02       7.179760e-02 
       4.000000e+00      -7.180218e-02       7.179760e-02 
       4.200000e+00      -7.180172e-02      -7.181736e-02 
[...]
POINT_DATA       800 
VECTORS Displacements float
       2.44822982e-23      -1.38777878e-17       0.00000000e+00 
       3.39638828e-23       0.00000000e+00       0.00000000e+00 
      -2.44822982e-23       1.38777878e-17       0.00000000e+00 
      -3.39638828e-23       0.00000000e+00       0.00000000e+00 
      -9.33531505e-09       1.37672554e-08      -2.67540229e-08 
      -2.90439646e-08       1.37672541e-08      -2.67539904e-08 
       9.25715576e-09       1.37672268e-08      -2.67539955e-08 
       2.89658053e-08       1.37672281e-08      -2.67540280e-08 
      -9.33531505e-09       1.37672554e-08      -2.67540229e-08 
      -2.90439646e-08       1.37672541e-08      -2.67539904e-08 
       9.25715576e-09       1.37672268e-08      -2.67539955e-08 
       2.89658053e-08       1.37672281e-08      -2.67540280e-08 
      -1.84956497e-08       5.47177990e-08      -1.06339804e-07 
      -5.75346769e-08       5.47177937e-08      -1.06339734e-07 
       1.83391626e-08       5.47177442e-08      -1.06339754e-07 
       5.73781898e-08       5.47177495e-08      -1.06339824e-07 
      -1.84956497e-08       5.47177990e-08      -1.06339804e-07 
      -5.75346769e-08       5.47177937e-08      -1.06339734e-07 
       1.83391626e-08       5.47177442e-08      -1.06339754e-07 
       5.73781898e-08       5.47177495e-08      -1.06339824e-07 
      -2.74810024e-08       1.22324841e-07      -2.37742956e-07 
      -8.54721354e-08       1.22324830e-07      -2.37742844e-07 
       2.72460221e-08       1.22324763e-07      -2.37742888e-07 
       8.52371551e-08       1.22324774e-07      -2.37743001e-07 
      -2.74810024e-08       1.22324841e-07      -2.37742956e-07 
      -8.54721354e-08       1.22324830e-07      -2.37742844e-07 
       2.72460221e-08       1.22324763e-07      -2.37742888e-07 
       8.52371551e-08       1.22324774e-07      -2.37743001e-07 
      -3.62913716e-08       2.16061593e-07      -4.19949093e-07 
      -1.12856338e-07       2.16061573e-07      -4.19948934e-07 
       3.59777360e-08       2.16061493e-07      -4.19949011e-07 
       1.12542703e-07       2.16061513e-07      -4.19949170e-07 
      -3.62913716e-08       2.16061593e-07      -4.19949093e-07 
      -1.12856338e-07       2.16061573e-07      -4.19948934e-07 
       3.59777360e-08       2.16061493e-07      -4.19949011e-07 
       1.12542703e-07       2.16061513e-07      -4.19949170e-07 
      -4.49267553e-08       3.35401266e-07      -6.51943828e-07 
      -1.39687285e-07       3.35401234e-07      -6.51943618e-07 
       4.45343056e-08       3.35401146e-07      -6.51943736e-07 
       1.39294835e-07       3.35401177e-07      -6.51943946e-07 
      -4.49267553e-08       3.35401266e-07      -6.51943828e-07 
      -1.39687285e-07       3.35401234e-07      -6.51943618e-07 
       4.45343056e-08       3.35401146e-07      -6.51943736e-07 
       1.39294835e-07       3.35401177e-07      -6.51943946e-07 
      -5.33871525e-08       4.79817069e-07      -9.32712774e-07 
      -1.65964972e-07       4.79817025e-07      -9.32712509e-07 
       5.29157329e-08       4.79816931e-07      -9.32712676e-07 
       1.65493552e-07       4.79816975e-07      -9.32712941e-07 
      -5.33871525e-08       4.79817069e-07      -9.32712774e-07 
      -1.65964972e-07       4.79817025e-07      -9.32712509e-07 
       5.29157329e-08       4.79816931e-07      -9.32712676e-07 
       1.65493552e-07       4.79816975e-07      -9.32712941e-07 
      -6.16725608e-08       6.48782213e-07      -1.26124154e-06 
      -1.91689399e-07       6.48782154e-07      -1.26124122e-06 
       6.11220190e-08       6.48782060e-07      -1.26124144e-06 
       1.91138857e-07       6.48782119e-07      -1.26124177e-06 
      -6.16725608e-08       6.48782213e-07      -1.26124154e-06 
      -1.91689399e-07       6.48782154e-07      -1.26124122e-06 
       6.11220190e-08       6.48782060e-07      -1.26124144e-06 
       1.91138857e-07       6.48782119e-07      -1.26124177e-06 
      -6.97829792e-08       8.41769910e-07      -1.63651575e-06 
      -2.16860564e-07       8.41769835e-07      -1.63651537e-06 
       6.91531665e-08       8.41769742e-07      -1.63651565e-06 
       2.16230751e-07       8.41769818e-07      -1.63651604e-06 
      -6.97829792e-08       8.41769910e-07      -1.63651575e-06 
      -2.16860564e-07       8.41769835e-07      -1.63651537e-06 
       6.91531665e-08       8.41769742e-07      -1.63651565e-06 
       2.16230751e-07       8.41769818e-07      -1.63651604e-06 
      -7.77184062e-08       1.05825337e-06      -2.05752101e-06 
      -2.41478466e-07       1.05825328e-06      -2.05752056e-06 
       7.70091757e-08       1.05825319e-06      -2.05752091e-06 
       2.40769236e-07       1.05825328e-06      -2.05752136e-06 
      -7.77184062e-08       1.05825337e-06      -2.05752101e-06 
      -2.41478466e-07       1.05825328e-06      -2.05752056e-06 
       7.70091757e-08       1.05825319e-06      -2.05752091e-06 
       2.40769236e-07       1.05825328e-06      -2.05752136e-06 
      -8.54788393e-08       1.29770580e-06      -2.52324293e-06 
      -2.65543102e-07       1.29770569e-06      -2.52324241e-06 
       8.46900492e-08       1.29770561e-06      -2.52324284e-06 
       2.64754313e-07       1.29770572e-06      -2.52324336e-06 
      -8.54788393e-08       1.29770580e-06      -2.52324293e-06 
      -2.65543102e-07       1.29770569e-06      -2.52324241e-06 
       8.46900496e-08       1.29770561e-06      -2.52324284e-06 
       2.64754313e-07       1.29770572e-06      -2.52324336e-06 
      -9.30595943e-08       1.55961000e-06      -3.03268612e-06 
      -2.89070271e-07       1.55960987e-06      -3.03268555e-06 
       9.22201071e-08       1.55960982e-06      -3.03268605e-06 
       2.88230784e-07       1.55960995e-06      -3.03268663e-06 
      -9.30595943e-08       1.55961000e-06      -3.03268612e-06 
      -2.89070271e-07       1.55960987e-06      -3.03268555e-06 
       9.22201071e-08       1.55960982e-06      -3.03268605e-06 
       2.88230784e-07       1.55960995e-06      -3.03268663e-06 
      -1.00483839e-07       1.84348617e-06      -3.58492669e-06 
      -3.12102929e-07       1.84348601e-06      -3.58492606e-06 
       9.95932812e-08       1.84348598e-06      -3.58492665e-06 
       3.11212372e-07       1.84348614e-06      -3.58492728e-06 
      -1.00483839e-07       1.84348617e-06      -3.58492669e-06 
      -3.12102929e-07       1.84348601e-06      -3.58492606e-06 
       9.95932812e-08       1.84348598e-06      -3.58492665e-06 
       3.11212372e-07       1.84348614e-06      -3.58492728e-06 
      -1.07751569e-07       2.14886358e-06      -4.17905750e-06 
      -3.34641073e-07       2.14886340e-06      -4.17905680e-06 
       1.06809575e-07       2.14886340e-06      -4.17905748e-06 
       3.33699079e-07       2.14886358e-06      -4.17905817e-06 
      -1.07751569e-07       2.14886358e-06      -4.17905750e-06 
      -3.34641073e-07       2.14886340e-06      -4.17905680e-06 
       1.06809575e-07       2.14886340e-06      -4.17905748e-06 
       3.33699079e-07       2.14886358e-06      -4.17905817e-06 
      -1.14862782e-07       2.47527154e-06      -4.81417139e-06 
      -3.56684698e-07       2.47527134e-06      -4.81417063e-06 
       1.13868993e-07       2.47527137e-06      -4.81417140e-06 
       3.55690910e-07       2.47527157e-06      -4.81417216e-06 
      -1.14862782e-07       2.47527154e-06      -4.81417139e-06 
      -3.56684698e-07       2.47527134e-06      -4.81417063e-06 
       1.13868993e-07       2.47527137e-06      -4.81417140e-06 
       3.55690910e-07       2.47527157e-06      -4.81417216e-06 
      -1.21817473e-07       2.82223935e-06      -5.48936122e-06 
      -3.78233801e-07       2.82223912e-06      -5.48936039e-06 
       1.20771539e-07       2.82223918e-06      -5.48936126e-06 
       3.77187868e-07       2.82223941e-06      -5.48936209e-06 
      -1.21817473e-07       2.82223935e-06      -5.48936122e-06 
      -3.78233801e-07       2.82223912e-06      -5.48936039e-06 
       1.20771539e-07       2.82223918e-06      -5.48936126e-06 
       3.77187868e-07       2.82223941e-06      -5.48936209e-06 
      -1.28615639e-07       3.18929629e-06      -6.20371986e-06 
      -3.99288377e-07       3.18929603e-06      -6.20371896e-06 
       1.27517218e-07       3.18929613e-06      -6.20371992e-06 
       3.98189957e-07       3.18929638e-06      -6.20372082e-06 
      -1.28615639e-07       3.18929629e-06      -6.20371986e-06 
      -3.99288377e-07       3.18929603e-06      -6.20371896e-06 
       1.27517218e-07       3.18929613e-06      -6.20371992e-06 
       3.98189957e-07       3.18929638e-06      -6.20372082e-06 
      -1.35257273e-07       3.57597165e-06      -6.95634014e-06 
      -4.19848423e-07       3.57597137e-06      -6.95633917e-06 
       1.34106033e-07       3.57597150e-06      -6.95634024e-06 
       4.18697182e-07       3.57597178e-06      -6.95634121e-06 
      -1.35257273e-07       3.57597165e-06      -6.95634014e-06 
      -4.19848423e-07       3.57597137e-06      -6.95633917e-06 
       1.34106033e-07       3.57597150e-06      -6.95634024e-06 
       4.18697182e-07       3.57597178e-06      -6.95634121e-06 
      -1.41742375e-07       3.98179474e-06      -7.74631493e-06 
      -4.39913935e-07       3.98179443e-06      -7.74631389e-06 
       1.40537987e-07       3.98179460e-06      -7.74631507e-06 
       4.38709546e-07       3.98179491e-06      -7.74631610e-06 
      -1.41742375e-07       3.98179474e-06      -7.74631493e-06 
      -4.39913935e-07       3.98179443e-06      -7.74631389e-06 
       1.40537987e-07       3.98179460e-06      -7.74631507e-06 
       4.38709546e-07       3.98179491e-06      -7.74631610e-06 
      -1.48070938e-07       4.40629484e-06      -8.57273708e-06 
      -4.59484907e-07       4.40629450e-06      -8.57273597e-06 
       1.46813086e-07       4.40629471e-06      -8.57273725e-06 
       4.58227055e-07       4.40629505e-06      -8.57273836e-06 
      -1.48070938e-07       4.40629484e-06      -8.57273708e-06 
      -4.59484907e-07       4.40629450e-06      -8.57273597e-06 
       1.46813086e-07       4.40629471e-06      -8.57273725e-06 
       4.58227055e-07       4.40629505e-06      -8.57273836e-06 
      -1.54242961e-07       4.84900125e-06      -9.43469945e-06 
      -4.78561339e-07       4.84900088e-06      -9.43469827e-06 
       1.52931332e-07       4.84900113e-06      -9.43469965e-06 
       4.77249710e-07       4.84900149e-06      -9.43470084e-06 
      -1.54242960e-07       4.84900125e-06      -9.43469945e-06 
      -4.78561338e-07       4.84900088e-06      -9.43469827e-06 
       1.52931332e-07       4.84900113e-06      -9.43469965e-06 
       4.77249710e-07       4.84900149e-06      -9.43470084e-06 
      -1.60257414e-07       5.30945265e-06      -1.03313129e-05 
      -4.97162335e-07       5.30945225e-06      -1.03313116e-05 
       1.58911980e-07       5.30945254e-06      -1.03313131e-05 
       4.95816901e-07       5.30945294e-06      -1.03313144e-05 
      -1.60257414e-07       5.30945265e-06      -1.03313129e-05 
      -4.97162335e-07       5.30945225e-06      -1.03313116e-05 
       1.58911980e-07       5.30945254e-06      -1.03313131e-05 
       4.95816901e-07       5.30945294e-06      -1.03313144e-05 
      -1.66133113e-07       5.78722474e-06      -1.12617580e-05 
      -5.15326444e-07       5.78722431e-06      -1.12617567e-05 
       1.64753429e-07       5.78722465e-06      -1.12617583e-05 
       5.13946759e-07       5.78722508e-06      -1.12617597e-05 
      -1.66133113e-07       5.78722474e-06      -1.12617580e-05 
      -5.15326444e-07       5.78722431e-06      -1.12617567e-05 
       1.64753429e-07       5.78722465e-06      -1.12617583e-05 
       5.13946759e-07       5.78722508e-06      -1.12617597e-05 
      -1.71870050e-07       6.28190233e-06      -1.22252327e-05 
      -5.33053657e-07       6.28190188e-06      -1.22252314e-05 
       1.70455683e-07       6.28190227e-06      -1.22252331e-05 
       5.31639291e-07       6.28190272e-06      -1.22252345e-05 
      -1.71870050e-07       6.28190233e-06      -1.22252327e-05 
      -5.33053657e-07       6.28190188e-06      -1.22252314e-05 
       1.70455683e-07       6.28190227e-06      -1.22252331e-05 
       5.31639291e-07       6.28190272e-06      -1.22252345e-05 
      -1.77468221e-07       6.79307025e-06      -1.32209347e-05 
      -5.50343972e-07       6.79306977e-06      -1.32209332e-05 
       1.76018747e-07       6.79307021e-06      -1.32209351e-05 
       5.48894499e-07       6.79307069e-06      -1.32209365e-05 
      -1.77468221e-07       6.79307025e-06      -1.32209347e-05 
      -5.50343972e-07       6.79306977e-06      -1.32209332e-05 
       1.76018747e-07       6.79307021e-06      -1.32209351e-05 
       5.48894499e-07       6.79307069e-06      -1.32209365e-05 
      -1.82927621e-07       7.32031331e-06      -1.42480616e-05 
      -5.67197382e-07       7.32031279e-06      -1.42480601e-05 
       1.81442628e-07       7.32031328e-06      -1.42480620e-05 
       5.65712391e-07       7.32031380e-06      -1.42480635e-05 
      -1.82927621e-07       7.32031331e-06      -1.42480616e-05 
      -5.67197382e-07       7.32031279e-06      -1.42480601e-05 
       1.81442628e-07       7.32031328e-06      -1.42480620e-05 
       5.65712391e-07       7.32031380e-06      -1.42480635e-05 
      -1.88248243e-07       7.86321631e-06      -1.53058112e-05 
      -5.83613883e-07       7.86321577e-06      -1.53058096e-05 
       1.86727330e-07       7.86321630e-06      -1.53058117e-05 
       5.82092970e-07       7.86321685e-06      -1.53058132e-05 
      -1.88248243e-07       7.86321631e-06      -1.53058112e-05 
      -5.83613883e-07       7.86321577e-06      -1.53058096e-05 
       1.86727330e-07       7.86321630e-06      -1.53058117e-05 
       5.82092970e-07       7.86321685e-06      -1.53058132e-05 
      -1.93430084e-07       8.42136407e-06      -1.63933812e-05 
      -5.99593468e-07       8.42136350e-06      -1.63933795e-05 
       1.91872859e-07       8.42136409e-06      -1.63933817e-05 
       5.98036245e-07       8.42136466e-06      -1.63933834e-05 
      -1.93430084e-07       8.42136407e-06      -1.63933812e-05 
      -5.99593468e-07       8.42136350e-06      -1.63933795e-05 
       1.91872859e-07       8.42136409e-06      -1.63933817e-05 
       5.98036245e-07       8.42136466e-06      -1.63933834e-05 
      -1.98473136e-07       8.99434141e-06      -1.75099694e-05 
      -6.15136133e-07       8.99434081e-06      -1.75099676e-05 
       1.96879220e-07       8.99434145e-06      -1.75099699e-05 
       6.13542218e-07       8.99434205e-06      -1.75099717e-05 
      -1.98473136e-07       8.99434141e-06      -1.75099694e-05 
      -6.15136133e-07       8.99434081e-06      -1.75099676e-05 
       1.96879220e-07       8.99434145e-06      -1.75099699e-05 
       6.13542218e-07       8.99434205e-06      -1.75099717e-05 
      -2.03377396e-07       9.58173314e-06      -1.86547734e-05 
      -6.30241872e-07       9.58173251e-06      -1.86547716e-05 
       2.01746419e-07       9.58173320e-06      -1.86547740e-05 
       6.28610894e-07       9.58173383e-06      -1.86547758e-05 
      -2.03377396e-07       9.58173314e-06      -1.86547734e-05 
      -6.30241872e-07       9.58173251e-06      -1.86547716e-05 
       2.01746419e-07       9.58173320e-06      -1.86547740e-05 
       6.28610894e-07       9.58173383e-06      -1.86547758e-05 
      -2.08142859e-07       1.01831241e-05      -1.98269910e-05 
      -6.44910681e-07       1.01831234e-05      -1.98269892e-05 
       2.06474459e-07       1.01831241e-05      -1.98269917e-05 
       6.43242281e-07       1.01831248e-05      -1.98269936e-05 
      -2.08142859e-07       1.01831241e-05      -1.98269910e-05 
      -6.44910681e-07       1.01831234e-05      -1.98269892e-05 
       2.06474458e-07       1.01831241e-05      -1.98269917e-05 
       6.43242281e-07       1.01831248e-05      -1.98269936e-05 
      -2.12771581e-07       1.07981083e-05      -2.10258374e-05 
      -6.59164542e-07       1.07981076e-05      -2.10258355e-05 
       2.11078826e-07       1.07981084e-05      -2.10258381e-05 
       6.57471787e-07       1.07981091e-05      -2.10258400e-05 
      -2.12771581e-07       1.07981083e-05      -2.10258374e-05 
      -6.59164542e-07       1.07981076e-05      -2.10258355e-05 
       2.11078826e-07       1.07981084e-05      -2.10258381e-05 
       6.57471787e-07       1.07981091e-05      -2.10258400e-05 
      -2.17279083e-07       1.14263167e-05      -2.22505971e-05 
      -6.73038694e-07       1.14263160e-05      -2.22505951e-05 
       2.15561547e-07       1.14263168e-05      -2.22505978e-05 
       6.71321159e-07       1.14263175e-05      -2.22505998e-05 
      -2.17279083e-07       1.14263167e-05      -2.22505971e-05 
      -6.73038694e-07       1.14263160e-05      -2.22505951e-05 
       2.15561547e-07       1.14263168e-05      -2.22505978e-05 
       6.71321159e-07       1.14263175e-05      -2.22505998e-05 
      -2.21665358e-07       1.20673893e-05      -2.35005718e-05 
      -6.86533133e-07       1.20673886e-05      -2.35005697e-05 
       2.19922628e-07       1.20673895e-05      -2.35005726e-05 
       6.84790403e-07       1.20673902e-05      -2.35005746e-05 
      -2.21665358e-07       1.20673893e-05      -2.35005718e-05 
      -6.86533133e-07       1.20673886e-05      -2.35005697e-05 
       2.19922628e-07       1.20673895e-05      -2.35005726e-05 
       6.84790403e-07       1.20673902e-05      -2.35005746e-05 
      -2.25930402e-07       1.27209662e-05      -2.47750634e-05 
      -6.99647854e-07       1.27209654e-05      -2.47750613e-05 
       2.24162070e-07       1.27209663e-05      -2.47750643e-05 
       6.97879522e-07       1.27209671e-05      -2.47750663e-05 
      -2.25930402e-07       1.27209662e-05      -2.47750634e-05 
      -6.99647854e-07       1.27209654e-05      -2.47750613e-05 
       2.24162070e-07       1.27209663e-05      -2.47750643e-05 
       6.97879522e-07       1.27209671e-05      -2.47750663e-05 
      -2.30074209e-07       1.33866873e-05      -2.60733737e-05 
      -7.12382850e-07       1.33866865e-05      -2.60733715e-05 
       2.28279882e-07       1.33866875e-05      -2.60733746e-05 
       7.10588525e-07       1.33866883e-05      -2.60733767e-05 
      -2.30074209e-07       1.33866873e-05      -2.60733737e-05 
      -7.12382850e-07       1.33866865e-05      -2.60733715e-05 
       2.28279882e-07       1.33866875e-05      -2.60733746e-05 
       7.10588525e-07       1.33866883e-05      -2.60733767e-05 
      -2.34096771e-07       1.40641927e-05      -2.73948044e-05 
      -7.24738116e-07       1.40641918e-05      -2.73948022e-05 
       2.32276070e-07       1.40641929e-05      -2.73948054e-05 
       7.22917415e-07       1.40641937e-05      -2.73948076e-05 
      -2.34096771e-07       1.40641927e-05      -2.73948044e-05 
      -7.24738116e-07       1.40641918e-05      -2.73948022e-05 
       2.32276070e-07       1.40641929e-05      -2.73948054e-05 
       7.22917415e-07       1.40641937e-05      -2.73948076e-05 
      -2.37998085e-07       1.47531224e-05      -2.87386575e-05 
      -7.36713646e-07       1.47531215e-05      -2.87386552e-05 
       2.36150639e-07       1.47531226e-05      -2.87386585e-05 
       7.34866199e-07       1.47531235e-05      -2.87386607e-05 
      -2.37998085e-07       1.47531224e-05      -2.87386575e-05 
      -7.36713646e-07       1.47531215e-05      -2.87386552e-05 
       2.36150639e-07       1.47531226e-05      -2.87386585e-05 
       7.34866199e-07       1.47531235e-05      -2.87386607e-05 
      -2.41778143e-07       1.54531164e-05      -3.01042346e-05 
      -7.48309431e-07       1.54531155e-05      -3.01042322e-05 
       2.39903597e-07       1.54531167e-05      -3.01042356e-05 
       7.46434885e-07       1.54531176e-05      -3.01042380e-05 
      -2.41778143e-07       1.54531164e-05      -3.01042346e-05 
      -7.48309431e-07       1.54531155e-05      -3.01042322e-05 