# vtk DataFile Version 2.0
./output/onsasExample_BladeCantileverBeamNoPitch_windVel3DDynamic 3D/onsasExample_BladeCantileverBeamNoPitch_windVel3DDynamic 3D_0136.vtk
ASCII
DATASET UNSTRUCTURED_GRID

POINTS 800 float
      -2.388999e-23      -7.180703e-02      -7.180703e-02 
      -2.628456e-23       7.180703e-02      -7.180703e-02 
       2.388999e-23       7.180703e-02       7.180703e-02 
       2.628456e-23      -7.180703e-02       7.180703e-02 
       2.000000e-01      -7.180702e-02      -7.180706e-02 
       2.000000e-01       7.180705e-02      -7.180706e-02 
       2.000000e-01       7.180705e-02       7.180701e-02 
       2.000000e-01      -7.180702e-02       7.180701e-02 
       2.000000e-01      -7.180702e-02      -7.180706e-02 
       2.000000e-01       7.180705e-02      -7.180706e-02 
       2.000000e-01       7.180705e-02       7.180701e-02 
       2.000000e-01      -7.180702e-02       7.180701e-02 
       4.000000e-01      -7.180698e-02      -7.180713e-02 
       3.999999e-01       7.180709e-02      -7.180713e-02 
       4.000000e-01       7.180709e-02       7.180694e-02 
       4.000001e-01      -7.180698e-02       7.180694e-02 
       4.000000e-01      -7.180698e-02      -7.180713e-02 
       3.999999e-01       7.180709e-02      -7.180713e-02 
       4.000000e-01       7.180709e-02       7.180694e-02 
       4.000001e-01      -7.180698e-02       7.180694e-02 
       6.000000e-01      -7.180691e-02      -7.180724e-02 
       5.999999e-01       7.180716e-02      -7.180724e-02 
       6.000000e-01       7.180716e-02       7.180682e-02 
       6.000001e-01      -7.180691e-02       7.180682e-02 
       6.000000e-01      -7.180691e-02      -7.180724e-02 
       5.999999e-01       7.180716e-02      -7.180724e-02 
       6.000000e-01       7.180716e-02       7.180682e-02 
       6.000001e-01      -7.180691e-02       7.180682e-02 
       8.000000e-01      -7.180682e-02      -7.180740e-02 
       7.999999e-01       7.180725e-02      -7.180740e-02 
       8.000000e-01       7.180725e-02       7.180666e-02 
       8.000001e-01      -7.180682e-02       7.180666e-02 
       8.000000e-01      -7.180682e-02      -7.180740e-02 
       7.999999e-01       7.180725e-02      -7.180740e-02 
       8.000000e-01       7.180725e-02       7.180666e-02 
       8.000001e-01      -7.180682e-02       7.180666e-02 
       1.000000e+00      -7.180670e-02      -7.180761e-02 
       9.999999e-01       7.180737e-02      -7.180761e-02 
       1.000000e+00       7.180737e-02       7.180646e-02 
       1.000000e+00      -7.180670e-02       7.180646e-02 
       1.000000e+00      -7.180670e-02      -7.180761e-02 
       9.999999e-01       7.180737e-02      -7.180761e-02 
       1.000000e+00       7.180737e-02       7.180646e-02 
       1.000000e+00      -7.180670e-02       7.180646e-02 
       1.200000e+00      -7.180655e-02      -7.180786e-02 
       1.200000e+00       7.180752e-02      -7.180786e-02 
       1.200000e+00       7.180752e-02       7.180621e-02 
       1.200000e+00      -7.180655e-02       7.180621e-02 
       1.200000e+00      -7.180655e-02      -7.180786e-02 
       1.200000e+00       7.180752e-02      -7.180786e-02 
       1.200000e+00       7.180752e-02       7.180621e-02 
       1.200000e+00      -7.180655e-02       7.180621e-02 
       1.400000e+00      -7.180638e-02      -7.180815e-02 
       1.400000e+00       7.180769e-02      -7.180815e-02 
       1.400000e+00       7.180769e-02       7.180592e-02 
       1.400000e+00      -7.180638e-02       7.180592e-02 
       1.400000e+00      -7.180638e-02      -7.180815e-02 
       1.400000e+00       7.180769e-02      -7.180815e-02 
       1.400000e+00       7.180769e-02       7.180592e-02 
       1.400000e+00      -7.180638e-02       7.180592e-02 
       1.600000e+00      -7.180618e-02      -7.180848e-02 
       1.600000e+00       7.180788e-02      -7.180848e-02 
       1.600000e+00       7.180788e-02       7.180559e-02 
       1.600000e+00      -7.180618e-02       7.180559e-02 
       1.600000e+00      -7.180618e-02      -7.180848e-02 
       1.600000e+00       7.180788e-02      -7.180848e-02 
       1.600000e+00       7.180788e-02       7.180559e-02 
       1.600000e+00      -7.180618e-02       7.180559e-02 
       1.800000e+00      -7.180597e-02      -7.180885e-02 
       1.800000e+00       7.180810e-02      -7.180885e-02 
       1.800000e+00       7.180810e-02       7.180522e-02 
       1.800000e+00      -7.180597e-02       7.180522e-02 
       1.800000e+00      -7.180597e-02      -7.180885e-02 
       1.800000e+00       7.180810e-02      -7.180885e-02 
       1.800000e+00       7.180810e-02       7.180522e-02 
       1.800000e+00      -7.180597e-02       7.180522e-02 
       2.000000e+00      -7.180572e-02      -7.180926e-02 
       2.000000e+00       7.180834e-02      -7.180926e-02 
       2.000000e+00       7.180834e-02       7.180481e-02 
       2.000000e+00      -7.180572e-02       7.180481e-02 
       2.000000e+00      -7.180572e-02      -7.180926e-02 
       2.000000e+00       7.180834e-02      -7.180926e-02 
       2.000000e+00       7.180834e-02       7.180481e-02 
       2.000000e+00      -7.180572e-02       7.180481e-02 
       2.200000e+00      -7.180546e-02      -7.180971e-02 
       2.200000e+00       7.180861e-02      -7.180971e-02 
       2.200000e+00       7.180861e-02       7.180436e-02 
       2.200000e+00      -7.180546e-02       7.180436e-02 
       2.200000e+00      -7.180546e-02      -7.180971e-02 
       2.200000e+00       7.180861e-02      -7.180971e-02 
       2.200000e+00       7.180861e-02       7.180436e-02 
       2.200000e+00      -7.180546e-02       7.180436e-02 
       2.400000e+00      -7.180517e-02      -7.181019e-02 
       2.400000e+00       7.180889e-02      -7.181019e-02 
       2.400000e+00       7.180889e-02       7.180387e-02 
       2.400000e+00      -7.180517e-02       7.180387e-02 
       2.400000e+00      -7.180517e-02      -7.181019e-02 
       2.400000e+00       7.180889e-02      -7.181019e-02 
       2.400000e+00       7.180889e-02       7.180387e-02 
       2.400000e+00      -7.180517e-02       7.180387e-02 
       2.600000e+00      -7.180487e-02      -7.181072e-02 
       2.600000e+00       7.180920e-02      -7.181072e-02 
       2.600000e+00       7.180920e-02       7.180335e-02 
       2.600000e+00      -7.180487e-02       7.180335e-02 
       2.600000e+00      -7.180487e-02      -7.181072e-02 
       2.600000e+00       7.180920e-02      -7.181072e-02 
       2.600000e+00       7.180920e-02       7.180335e-02 
       2.600000e+00      -7.180487e-02       7.180335e-02 
       2.800000e+00      -7.180454e-02      -7.181127e-02 
       2.800000e+00       7.180953e-02      -7.181127e-02 
       2.800000e+00       7.180953e-02       7.180279e-02 
       2.800000e+00      -7.180454e-02       7.180279e-02 
       2.800000e+00      -7.180454e-02      -7.181127e-02 
       2.800000e+00       7.180953e-02      -7.181127e-02 
       2.800000e+00       7.180953e-02       7.180279e-02 
       2.800000e+00      -7.180454e-02       7.180279e-02 
       3.000000e+00      -7.180419e-02      -7.181187e-02 
       3.000000e+00       7.180988e-02      -7.181187e-02 
       3.000000e+00       7.180988e-02       7.180220e-02 
       3.000000e+00      -7.180419e-02       7.180220e-02 
       3.000000e+00      -7.180419e-02      -7.181187e-02 
       3.000000e+00       7.180988e-02      -7.181187e-02 
       3.000000e+00       7.180988e-02       7.180220e-02 
       3.000000e+00      -7.180419e-02       7.180220e-02 
       3.200000e+00      -7.180382e-02      -7.181249e-02 
       3.200000e+00       7.181025e-02      -7.181249e-02 
       3.200000e+00       7.181025e-02       7.180157e-02 
       3.200000e+00      -7.180382e-02       7.180157e-02 
       3.200000e+00      -7.180382e-02      -7.181249e-02 
       3.200000e+00       7.181025e-02      -7.181249e-02 
       3.200000e+00       7.181025e-02       7.180157e-02 
       3.200000e+00      -7.180382e-02       7.180157e-02 
       3.400000e+00      -7.180343e-02      -7.181315e-02 
       3.400000e+00       7.181064e-02      -7.181315e-02 
       3.400000e+00       7.181064e-02       7.180091e-02 
       3.400000e+00      -7.180343e-02       7.180091e-02 
       3.400000e+00      -7.180343e-02      -7.181315e-02 
       3.400000e+00       7.181064e-02      -7.181315e-02 
       3.400000e+00       7.181064e-02       7.180091e-02 
       3.400000e+00      -7.180343e-02       7.180091e-02 
       3.600000e+00      -7.180302e-02      -7.181384e-02 
       3.600000e+00       7.181105e-02      -7.181384e-02 
       3.600000e+00       7.181105e-02       7.180022e-02 
       3.600000e+00      -7.180302e-02       7.180022e-02 
       3.600000e+00      -7.180302e-02      -7.181384e-02 
       3.600000e+00       7.181105e-02      -7.181384e-02 
       3.600000e+00       7.181105e-02       7.180022e-02 
       3.600000e+00      -7.180302e-02       7.180022e-02 
       3.800000e+00      -7.180259e-02      -7.181457e-02 
       3.800000e+00       7.181148e-02      -7.181457e-02 
       3.800000e+00       7.181148e-02       7.179950e-02 
       3.800000e+00      -7.180259e-02       7.179950e-02 
       3.800000e+00      -7.180259e-02      -7.181457e-02 
       3.800000e+00       7.181148e-02      -7.181457e-02 
       3.800000e+00       7.181148e-02       7.179950e-02 
       3.800000e+00      -7.180259e-02       7.179950e-02 
       4.000000e+00      -7.180214e-02      -7.181532e-02 
       4.000000e+00       7.181192e-02      -7.181532e-02 
       4.000000e+00       7.181192e-02       7.179874e-02 
       4.000000e+00      -7.180214e-02       7.179874e-02 
       4.000000e+00      -7.180214e-02      -7.181532e-02 
       4.000000e+00       7.181192e-02      -7.181532e-02 
       4.000000e+00       7.181192e-02       7.179874e-02 
       4.000000e+00      -7.180214e-02       7.179874e-02 
       4.200000e+00      -7.180168e-02      -7.181611e-02 
[...]
POINT_DATA       800 
VECTORS Displacements float
      -2.38899929e-23       0.00000000e+00      -1.38777878e-17 
      -2.62845642e-23       1.38777878e-17      -1.38777878e-17 
       2.38899929e-23       0.00000000e+00       1.38777878e-17 
       2.62845642e-23      -1.38777878e-17       1.38777878e-17 
      -7.05901843e-09       1.38734926e-08      -2.36879577e-08 
      -2.69201800e-08       1.38734913e-08      -2.36879321e-08 
       6.98516545e-09       1.38734704e-08      -2.36879361e-08 
       2.68463270e-08       1.38734717e-08      -2.36879617e-08 
      -7.05901843e-09       1.38734926e-08      -2.36879577e-08 
      -2.69201800e-08       1.38734913e-08      -2.36879321e-08 
       6.98516545e-09       1.38734704e-08      -2.36879361e-08 
       2.68463270e-08       1.38734717e-08      -2.36879617e-08 
      -1.39657998e-08       5.51423973e-08      -9.41174497e-08 
      -5.33094663e-08       5.51423920e-08      -9.41173940e-08 
       1.38179540e-08       5.51423547e-08      -9.41174097e-08 
       5.31616205e-08       5.51423601e-08      -9.41174654e-08 
      -1.39657998e-08       5.51423973e-08      -9.41174497e-08 
      -5.33094663e-08       5.51423920e-08      -9.41173940e-08 
       1.38179540e-08       5.51423547e-08      -9.41174097e-08 
       5.31616205e-08       5.51423601e-08      -9.41174654e-08 
      -2.07203429e-08       1.23279389e-07      -2.10336939e-07 
      -7.91678576e-08       1.23279377e-07      -2.10336849e-07 
       2.04983669e-08       1.23279328e-07      -2.10336884e-07 
       7.89458816e-08       1.23279339e-07      -2.10336974e-07 
      -2.07203429e-08       1.23279389e-07      -2.10336939e-07 
      -7.91678576e-08       1.23279377e-07      -2.10336849e-07 
       2.04983669e-08       1.23279328e-07      -2.10336884e-07 
       7.89458816e-08       1.23279339e-07      -2.10336974e-07 
      -2.73226459e-08       2.17757142e-07      -3.71394889e-07 
      -1.04495352e-07       2.17757121e-07      -3.71394760e-07 
       2.70264059e-08       2.17757064e-07      -3.71394820e-07 
       1.04199112e-07       2.17757084e-07      -3.71394949e-07 
      -2.73226459e-08       2.17757142e-07      -3.71394889e-07 
      -1.04495352e-07       2.17757121e-07      -3.71394760e-07 
       2.70264059e-08       2.17757064e-07      -3.71394820e-07 
       1.04199112e-07       2.17757084e-07      -3.71394949e-07 
      -3.37727076e-08       3.38048332e-07      -5.76339762e-07 
      -1.29291949e-07       3.38048300e-07      -5.76339591e-07 
       3.34020722e-08       3.38048238e-07      -5.76339683e-07 
       1.28921314e-07       3.38048269e-07      -5.76339854e-07 
      -3.37727076e-08       3.38048332e-07      -5.76339762e-07 
      -1.29291949e-07       3.38048300e-07      -5.76339591e-07 
       3.34020722e-08       3.38048238e-07      -5.76339683e-07 
       1.28921314e-07       3.38048269e-07      -5.76339854e-07 
      -4.00705271e-08       4.83625633e-07      -8.24220021e-07 
      -1.53557647e-07       4.83625588e-07      -8.24219805e-07 
       3.96253672e-08       4.83625525e-07      -8.24219935e-07 
       1.53112487e-07       4.83625569e-07      -8.24220151e-07 
      -4.00705271e-08       4.83625633e-07      -8.24220021e-07 
      -1.53557647e-07       4.83625588e-07      -8.24219805e-07 
       3.96253672e-08       4.83625525e-07      -8.24219935e-07 
       1.53112487e-07       4.83625569e-07      -8.24220151e-07 
      -4.62161025e-08       6.53961720e-07      -1.11408413e-06 
      -1.77292444e-07       6.53961660e-07      -1.11408386e-06 
       4.56962921e-08       6.53961599e-07      -1.11408404e-06 
       1.76772634e-07       6.53961658e-07      -1.11408430e-06 
      -4.62161025e-08       6.53961720e-07      -1.11408413e-06 
      -1.77292444e-07       6.53961660e-07      -1.11408386e-06 
       4.56962921e-08       6.53961599e-07      -1.11408404e-06 
       1.76772634e-07       6.53961658e-07      -1.11408430e-06 
      -5.22094319e-08       8.48529268e-07      -1.44498055e-06 
      -2.00496339e-07       8.48529191e-07      -1.44498023e-06 
       5.16148486e-08       8.48529135e-07      -1.44498046e-06 
       1.99901756e-07       8.48529211e-07      -1.44498077e-06 
      -5.22094319e-08       8.48529268e-07      -1.44498055e-06 
      -2.00496339e-07       8.48529191e-07      -1.44498023e-06 
       5.16148486e-08       8.48529135e-07      -1.44498046e-06 
       1.99901756e-07       8.48529211e-07      -1.44498077e-06 
      -5.80505148e-08       1.06680095e-06      -1.81595775e-06 
      -2.23169331e-07       1.06680086e-06      -1.81595738e-06 
       5.73810384e-08       1.06680081e-06      -1.81595765e-06 
       2.22499854e-07       1.06680090e-06      -1.81595802e-06 
      -5.80505148e-08       1.06680095e-06      -1.81595775e-06 
      -2.23169331e-07       1.06680086e-06      -1.81595738e-06 
       5.73810384e-08       1.06680081e-06      -1.81595765e-06 
       2.22499854e-07       1.06680090e-06      -1.81595802e-06 
      -6.37393494e-08       1.30824945e-06      -2.22606418e-06 
      -2.45311417e-07       1.30824933e-06      -2.22606375e-06 
       6.29948618e-08       1.30824929e-06      -2.22606409e-06 
       2.44566930e-07       1.30824941e-06      -2.22606451e-06 
      -6.37393496e-08       1.30824945e-06      -2.22606418e-06 
      -2.45311417e-07       1.30824933e-06      -2.22606375e-06 
       6.29948618e-08       1.30824929e-06      -2.22606409e-06 
       2.44566930e-07       1.30824941e-06      -2.22606451e-06 
      -6.92729927e-08       1.57235691e-06      -2.67436862e-06 
      -2.66939944e-07       1.57235677e-06      -2.67436814e-06 
       6.84816346e-08       1.57235676e-06      -2.67436853e-06 
       2.66148586e-07       1.57235689e-06      -2.67436901e-06 
      -6.92729927e-08       1.57235691e-06      -2.67436862e-06 
      -2.66939944e-07       1.57235677e-06      -2.67436814e-06 
       6.84816346e-08       1.57235676e-06      -2.67436853e-06 
       2.66148586e-07       1.57235689e-06      -2.67436901e-06 
      -7.46750026e-08       1.85864261e-06      -3.16001503e-06 
      -2.88098142e-07       1.85864245e-06      -3.16001450e-06 
       7.38364689e-08       1.85864246e-06      -3.16001496e-06 
       2.87259608e-07       1.85864262e-06      -3.16001548e-06 
      -7.46750026e-08       1.85864261e-06      -3.16001503e-06 
      -2.88098142e-07       1.85864245e-06      -3.16001450e-06 
       7.38364689e-08       1.85864246e-06      -3.16001496e-06 
       2.87259608e-07       1.85864262e-06      -3.16001548e-06 
      -7.99453770e-08       2.16663488e-06      -3.68216468e-06 
      -3.08786007e-07       2.16663469e-06      -3.68216410e-06 
       7.90593684e-08       2.16663473e-06      -3.68216463e-06 
       3.07899998e-07       2.16663492e-06      -3.68216521e-06 
      -7.99453770e-08       2.16663488e-06      -3.68216468e-06 
      -3.08786007e-07       2.16663469e-06      -3.68216410e-06 
       7.90593684e-08       2.16663473e-06      -3.68216463e-06 
       3.07899998e-07       2.16663492e-06      -3.68216521e-06 
      -8.50841122e-08       2.49586203e-06      -4.23997885e-06 
      -3.29003536e-07       2.49586182e-06      -4.23997822e-06 
       8.41503360e-08       2.49586189e-06      -4.23997882e-06 
       3.28069760e-07       2.49586210e-06      -4.23997945e-06 
      -8.50841122e-08       2.49586203e-06      -4.23997885e-06 
      -3.29003536e-07       2.49586182e-06      -4.23997822e-06 
       8.41503360e-08       2.49586189e-06      -4.23997882e-06 
       3.28069760e-07       2.49586210e-06      -4.23997945e-06 
      -9.00912047e-08       2.84585239e-06      -4.83261881e-06 
      -3.48750726e-07       2.84585216e-06      -4.83261812e-06 
       8.91093750e-08       2.84585226e-06      -4.83261879e-06 
       3.47768896e-07       2.84585249e-06      -4.83261948e-06 
      -9.00912047e-08       2.84585239e-06      -4.83261881e-06 
      -3.48750726e-07       2.84585216e-06      -4.83261812e-06 
       8.91093750e-08       2.84585226e-06      -4.83261879e-06 
       3.47768896e-07       2.84585249e-06      -4.83261948e-06 
      -9.49666514e-08       3.21613429e-06      -5.45924582e-06 
      -3.68027574e-07       3.21613403e-06      -5.45924507e-06 
       9.39364897e-08       3.21613416e-06      -5.45924582e-06 
       3.66997412e-07       3.21613442e-06      -5.45924656e-06 
      -9.49666514e-08       3.21613429e-06      -5.45924582e-06 
      -3.68027574e-07       3.21613403e-06      -5.45924507e-06 
       9.39364897e-08       3.21613416e-06      -5.45924582e-06 
       3.66997412e-07       3.21613442e-06      -5.45924656e-06 
      -9.97104483e-08       3.60623604e-06      -6.11902115e-06 
      -3.86834075e-07       3.60623576e-06      -6.11902035e-06 
       9.86316837e-08       3.60623592e-06      -6.11902117e-06 
       3.85755310e-07       3.60623621e-06      -6.11902198e-06 
      -9.97104483e-08       3.60623604e-06      -6.11902115e-06 
      -3.86834075e-07       3.60623576e-06      -6.11902035e-06 
       9.86316837e-08       3.60623592e-06      -6.11902117e-06 
       3.85755310e-07       3.60623621e-06      -6.11902198e-06 
      -1.04322593e-07       4.01568598e-06      -6.81110608e-06 
      -4.05170227e-07       4.01568566e-06      -6.81110522e-06 
       1.03194958e-07       4.01568587e-06      -6.81110612e-06 
       4.04042592e-07       4.01568618e-06      -6.81110698e-06 
      -1.04322593e-07       4.01568598e-06      -6.81110608e-06 
      -4.05170227e-07       4.01568566e-06      -6.81110522e-06 
       1.03194958e-07       4.01568587e-06      -6.81110612e-06 
       4.04042592e-07       4.01568618e-06      -6.81110698e-06 
      -1.08803081e-07       4.44401242e-06      -7.53466187e-06 
      -4.23036026e-07       4.44401208e-06      -7.53466095e-06 
       1.07626319e-07       4.44401232e-06      -7.53466193e-06 
       4.21859264e-07       4.44401266e-06      -7.53466285e-06 
      -1.08803081e-07       4.44401242e-06      -7.53466187e-06 
      -4.23036026e-07       4.44401208e-06      -7.53466095e-06 
       1.07626319e-07       4.44401232e-06      -7.53466193e-06 
       4.21859264e-07       4.44401266e-06      -7.53466285e-06 
      -1.13151909e-07       4.89074370e-06      -8.28884980e-06 
      -4.40431469e-07       4.89074333e-06      -8.28884881e-06 
       1.11925769e-07       4.89074360e-06      -8.28884988e-06 
       4.39205328e-07       4.89074397e-06      -8.28885086e-06 
      -1.13151909e-07       4.89074370e-06      -8.28884980e-06 
      -4.40431469e-07       4.89074333e-06      -8.28884881e-06 
       1.11925768e-07       4.89074360e-06      -8.28884988e-06 
       4.39205328e-07       4.89074397e-06      -8.28885086e-06 
      -1.17369638e-07       5.35541745e-06      -9.07285041e-06 
      -4.57377101e-07       5.35541704e-06      -9.07284937e-06 
       1.16113494e-07       5.35541736e-06      -9.07285052e-06 
       4.56120955e-07       5.35541776e-06      -9.07285156e-06 
      -1.17369638e-07       5.35541745e-06      -9.07285041e-06 
      -4.57377101e-07       5.35541704e-06      -9.07284937e-06 
       1.16113494e-07       5.35541736e-06      -9.07285052e-06 
       4.56120955e-07       5.35541776e-06      -9.07285156e-06 
      -1.21475050e-07       5.83760807e-06      -9.88591685e-06 
      -4.73911310e-07       5.83760764e-06      -9.88591576e-06 
       1.20188544e-07       5.83760800e-06      -9.88591699e-06 
       4.72624803e-07       5.83760843e-06      -9.88591808e-06 
      -1.21475050e-07       5.83760807e-06      -9.88591685e-06 
      -4.73911310e-07       5.83760764e-06      -9.88591576e-06 
       1.20188544e-07       5.83760800e-06      -9.88591699e-06 
       4.72624803e-07       5.83760843e-06      -9.88591808e-06 
      -1.25468141e-07       6.33689903e-06      -1.07273193e-05 
      -4.90034092e-07       6.33689857e-06      -1.07273181e-05 
       1.24150925e-07       6.33689897e-06      -1.07273194e-05 
       4.88716876e-07       6.33689944e-06      -1.07273206e-05 
      -1.25468141e-07       6.33689903e-06      -1.07273193e-05 
      -4.90034092e-07       6.33689857e-06      -1.07273181e-05 
       1.24150925e-07       6.33689897e-06      -1.07273194e-05 
       4.88716876e-07       6.33689944e-06      -1.07273206e-05 
      -1.29348906e-07       6.85287379e-06      -1.15963277e-05 
      -5.05745442e-07       6.85287329e-06      -1.15963265e-05 
       1.28000639e-07       6.85287375e-06      -1.15963279e-05 
       5.04397176e-07       6.85287424e-06      -1.15963291e-05 
      -1.29348906e-07       6.85287379e-06      -1.15963277e-05 
      -5.05745442e-07       6.85287329e-06      -1.15963265e-05 
       1.28000639e-07       6.85287375e-06      -1.15963279e-05 
       5.04397176e-07       6.85287424e-06      -1.15963291e-05 
      -1.33117340e-07       7.38511580e-06      -1.24922125e-05 
      -5.21045357e-07       7.38511527e-06      -1.24922112e-05 
       1.31737693e-07       7.38511577e-06      -1.24922127e-05 
       5.19665710e-07       7.38511630e-06      -1.24922139e-05 
      -1.33117340e-07       7.38511580e-06      -1.24922125e-05 
      -5.21045357e-07       7.38511527e-06      -1.24922112e-05 
       1.31737693e-07       7.38511577e-06      -1.24922127e-05 
       5.19665710e-07       7.38511630e-06      -1.24922139e-05 
      -1.36773441e-07       7.93320852e-06      -1.34142435e-05 
      -5.35933832e-07       7.93320797e-06      -1.34142422e-05 
       1.35362089e-07       7.93320851e-06      -1.34142438e-05 
       5.34522480e-07       7.93320907e-06      -1.34142451e-05 
      -1.36773441e-07       7.93320852e-06      -1.34142435e-05 
      -5.35933832e-07       7.93320797e-06      -1.34142422e-05 
       1.35362089e-07       7.93320851e-06      -1.34142438e-05 
       5.34522480e-07       7.93320907e-06      -1.34142451e-05 
      -1.40317201e-07       8.49673542e-06      -1.43616911e-05 
      -5.50410862e-07       8.49673484e-06      -1.43616897e-05 
       1.38873832e-07       8.49673543e-06      -1.43616913e-05 
       5.48967494e-07       8.49673601e-06      -1.43616927e-05 
      -1.40317201e-07       8.49673542e-06      -1.43616911e-05 
      -5.50410862e-07       8.49673484e-06      -1.43616897e-05 
       1.38873832e-07       8.49673543e-06      -1.43616913e-05 
       5.48967494e-07       8.49673601e-06      -1.43616927e-05 
      -1.43748617e-07       9.07527995e-06      -1.53338252e-05 
      -5.64476442e-07       9.07527934e-06      -1.53338238e-05 
       1.42272929e-07       9.07527997e-06      -1.53338255e-05 
       5.63000754e-07       9.07528059e-06      -1.53338270e-05 
      -1.43748617e-07       9.07527995e-06      -1.53338252e-05 
      -5.64476442e-07       9.07527934e-06      -1.53338238e-05 
       1.42272929e-07       9.07527997e-06      -1.53338255e-05 
       5.63000754e-07       9.07528059e-06      -1.53338270e-05 
      -1.47067687e-07       9.66842558e-06      -1.63299161e-05 
      -5.78130570e-07       9.66842493e-06      -1.63299146e-05 
       1.45559381e-07       9.66842561e-06      -1.63299165e-05 
       5.76622264e-07       9.66842626e-06      -1.63299179e-05 
      -1.47067687e-07       9.66842558e-06      -1.63299161e-05 
      -5.78130570e-07       9.66842493e-06      -1.63299146e-05 
       1.45559381e-07       9.66842561e-06      -1.63299165e-05 
       5.76622264e-07       9.66842626e-06      -1.63299179e-05 
      -1.50274404e-07       1.02757558e-05      -1.73492339e-05 
      -5.91373239e-07       1.02757551e-05      -1.73492324e-05 
       1.48733193e-07       1.02757558e-05      -1.73492343e-05 
       5.89832029e-07       1.02757565e-05      -1.73492358e-05 
      -1.50274403e-07       1.02757558e-05      -1.73492339e-05 
      -5.91373239e-07       1.02757551e-05      -1.73492324e-05 
       1.48733193e-07       1.02757558e-05      -1.73492343e-05 
       5.89832029e-07       1.02757565e-05      -1.73492358e-05 
      -1.53372075e-07       1.08968631e-05      -1.83910672e-05 
      -6.04227547e-07       1.08968624e-05      -1.83910656e-05 
       1.51810543e-07       1.08968632e-05      -1.83910676e-05 
       6.02666015e-07       1.08968639e-05      -1.83910692e-05 
      -1.53372075e-07       1.08968631e-05      -1.83910672e-05 
      -6.04227547e-07       1.08968624e-05      -1.83910656e-05 
       1.51810543e-07       1.08968632e-05      -1.83910676e-05 
       6.02666015e-07       1.08968639e-05      -1.83910692e-05 
      -1.56375731e-07       1.15313770e-05      -1.94547753e-05 
      -6.16728111e-07       1.15313762e-05      -1.94547736e-05 
       1.54793538e-07       1.15313771e-05      -1.94547757e-05 
       6.15145918e-07       1.15313778e-05      -1.94547774e-05 
      -1.56375731e-07       1.15313770e-05      -1.94547753e-05 
      -6.16728111e-07       1.15313762e-05      -1.94547736e-05 
       1.54793538e-07       1.15313771e-05      -1.94547757e-05 
       6.15145918e-07       1.15313778e-05      -1.94547774e-05 
      -1.59285366e-07       1.21789356e-05      -2.05397341e-05 
      -6.28874925e-07       1.21789348e-05      -2.05397324e-05 
       1.57682185e-07       1.21789357e-05      -2.05397345e-05 
       6.27271744e-07       1.21789364e-05      -2.05397362e-05 
      -1.59285366e-07       1.21789356e-05      -2.05397341e-05 
      -6.28874925e-07       1.21789348e-05      -2.05397324e-05 
       1.57682185e-07       1.21789357e-05      -2.05397345e-05 
       6.27271744e-07       1.21789364e-05      -2.05397362e-05 
      -1.62100977e-07       1.28391772e-05      -2.16453195e-05 
      -6.40667987e-07       1.28391764e-05      -2.16453178e-05 
       1.60476486e-07       1.28391773e-05      -2.16453200e-05 
       6.39043495e-07       1.28391781e-05      -2.16453218e-05 
      -1.62100977e-07       1.28391772e-05      -2.16453195e-05 
      -6.40667987e-07       1.28391764e-05      -2.16453178e-05 
       1.60476486e-07       1.28391773e-05      -2.16453200e-05 
       6.39043495e-07       1.28391781e-05      -2.16453218e-05 
      -1.64822558e-07       1.35117402e-05      -2.27709077e-05 
      -6.52107290e-07       1.35117393e-05      -2.27709058e-05 
       1.63176447e-07       1.35117403e-05      -2.27709082e-05 
       6.50461178e-07       1.35117411e-05      -2.27709100e-05 
      -1.64822558e-07       1.35117402e-05      -2.27709077e-05 
      -6.52107290e-07       1.35117393e-05      -2.27709058e-05 
       1.63176447e-07       1.35117403e-05      -2.27709082e-05 
       6.50461178e-07       1.35117411e-05      -2.27709100e-05 
      -1.67450104e-07       1.41962628e-05      -2.39158744e-05 
      -6.63192830e-07       1.41962619e-05      -2.39158725e-05 
       1.65782073e-07       1.41962629e-05      -2.39158749e-05 
       6.61524798e-07       1.41962638e-05      -2.39158768e-05 
      -1.67450104e-07       1.41962628e-05      -2.39158744e-05 
      -6.63192830e-07       1.41962619e-05      -2.39158725e-05 
       1.65782073e-07       1.41962629e-05      -2.39158749e-05 
       6.61524798e-07       1.41962638e-05      -2.39158768e-05 
      -1.69983612e-07       1.48923833e-05      -2.50795957e-05 
      -6.73924601e-07       1.48923824e-05      -2.50795938e-05 
       1.68293369e-07       1.48923834e-05      -2.50795963e-05 
       6.72234359e-07       1.48923843e-05      -2.50795982e-05 
      -1.69983612e-07       1.48923833e-05      -2.50795957e-05 
      -6.73924601e-07       1.48923824e-05      -2.50795938e-05 
       1.68293369e-07       1.48923834e-05      -2.50795963e-05 
       6.72234359e-07       1.48923843e-05      -2.50795982e-05 
      -1.72423073e-07       1.55997400e-05      -2.62614476e-05 
      -6.84302599e-07       1.55997391e-05      -2.62614457e-05 
       1.70710340e-07       1.55997402e-05      -2.62614482e-05 
       6.82589866e-07       1.55997411e-05      -2.62614502e-05 
      -1.72423073e-07       1.55997400e-05      -2.62614476e-05 
      -6.84302599e-07       1.55997391e-05      -2.62614457e-05 