# vtk DataFile Version 2.0
./output/onsasExample_BladeCantileverBeamNoPitch_windVel3DDynamic 3D/onsasExample_BladeCantileverBeamNoPitch_windVel3DDynamic 3D_0187.vtk
ASCII
DATASET UNSTRUCTURED_GRID

POINTS 800 float
       1.419240e-23      -7.180703e-02      -7.180703e-02 
       3.137625e-23       7.180703e-02      -7.180703e-02 
      -1.419240e-23       7.180703e-02       7.180703e-02 
      -3.137625e-23      -7.180703e-02       7.180703e-02 
       2.000000e-01      -7.180702e-02      -7.180706e-02 
       2.000000e-01       7.180705e-02      -7.180706e-02 
       2.000000e-01       7.180705e-02       7.180701e-02 
       2.000000e-01      -7.180702e-02       7.180701e-02 
       2.000000e-01      -7.180702e-02      -7.180706e-02 
       2.000000e-01       7.180705e-02      -7.180706e-02 
       2.000000e-01       7.180705e-02       7.180701e-02 
       2.000000e-01      -7.180702e-02       7.180701e-02 
       4.000000e-01      -7.180698e-02      -7.180713e-02 
       3.999999e-01       7.180709e-02      -7.180713e-02 
       4.000000e-01       7.180709e-02       7.180694e-02 
       4.000001e-01      -7.180698e-02       7.180694e-02 
       4.000000e-01      -7.180698e-02      -7.180713e-02 
       3.999999e-01       7.180709e-02      -7.180713e-02 
       4.000000e-01       7.180709e-02       7.180694e-02 
       4.000001e-01      -7.180698e-02       7.180694e-02 
       6.000000e-01      -7.180691e-02      -7.180724e-02 
       5.999999e-01       7.180716e-02      -7.180724e-02 
       6.000000e-01       7.180716e-02       7.180682e-02 
       6.000001e-01      -7.180691e-02       7.180682e-02 
       6.000000e-01      -7.180691e-02      -7.180724e-02 
       5.999999e-01       7.180716e-02      -7.180724e-02 
       6.000000e-01       7.180716e-02       7.180682e-02 
       6.000001e-01      -7.180691e-02       7.180682e-02 
       8.000000e-01      -7.180682e-02      -7.180741e-02 
       7.999999e-01       7.180725e-02      -7.180741e-02 
       8.000000e-01       7.180725e-02       7.180666e-02 
       8.000001e-01      -7.180682e-02       7.180666e-02 
       8.000000e-01      -7.180682e-02      -7.180741e-02 
       7.999999e-01       7.180725e-02      -7.180741e-02 
       8.000000e-01       7.180725e-02       7.180666e-02 
       8.000001e-01      -7.180682e-02       7.180666e-02 
       1.000000e+00      -7.180669e-02      -7.180761e-02 
       9.999999e-01       7.180737e-02      -7.180761e-02 
       1.000000e+00       7.180737e-02       7.180645e-02 
       1.000000e+00      -7.180669e-02       7.180645e-02 
       1.000000e+00      -7.180669e-02      -7.180761e-02 
       9.999999e-01       7.180737e-02      -7.180761e-02 
       1.000000e+00       7.180737e-02       7.180645e-02 
       1.000000e+00      -7.180669e-02       7.180645e-02 
       1.200000e+00      -7.180655e-02      -7.180786e-02 
       1.200000e+00       7.180752e-02      -7.180786e-02 
       1.200000e+00       7.180752e-02       7.180620e-02 
       1.200000e+00      -7.180655e-02       7.180620e-02 
       1.200000e+00      -7.180655e-02      -7.180786e-02 
       1.200000e+00       7.180752e-02      -7.180786e-02 
       1.200000e+00       7.180752e-02       7.180620e-02 
       1.200000e+00      -7.180655e-02       7.180620e-02 
       1.400000e+00      -7.180638e-02      -7.180815e-02 
       1.400000e+00       7.180769e-02      -7.180815e-02 
       1.400000e+00       7.180769e-02       7.180591e-02 
       1.400000e+00      -7.180638e-02       7.180591e-02 
       1.400000e+00      -7.180638e-02      -7.180815e-02 
       1.400000e+00       7.180769e-02      -7.180815e-02 
       1.400000e+00       7.180769e-02       7.180591e-02 
       1.400000e+00      -7.180638e-02       7.180591e-02 
       1.600000e+00      -7.180618e-02      -7.180849e-02 
       1.600000e+00       7.180788e-02      -7.180849e-02 
       1.600000e+00       7.180788e-02       7.180558e-02 
       1.600000e+00      -7.180618e-02       7.180558e-02 
       1.600000e+00      -7.180618e-02      -7.180849e-02 
       1.600000e+00       7.180788e-02      -7.180849e-02 
       1.600000e+00       7.180788e-02       7.180558e-02 
       1.600000e+00      -7.180618e-02       7.180558e-02 
       1.800000e+00      -7.180597e-02      -7.180886e-02 
       1.800000e+00       7.180810e-02      -7.180886e-02 
       1.800000e+00       7.180810e-02       7.180521e-02 
       1.800000e+00      -7.180597e-02       7.180521e-02 
       1.800000e+00      -7.180597e-02      -7.180886e-02 
       1.800000e+00       7.180810e-02      -7.180886e-02 
       1.800000e+00       7.180810e-02       7.180521e-02 
       1.800000e+00      -7.180597e-02       7.180521e-02 
       2.000000e+00      -7.180572e-02      -7.180927e-02 
       2.000000e+00       7.180834e-02      -7.180927e-02 
       2.000000e+00       7.180834e-02       7.180480e-02 
       2.000000e+00      -7.180572e-02       7.180480e-02 
       2.000000e+00      -7.180572e-02      -7.180927e-02 
       2.000000e+00       7.180834e-02      -7.180927e-02 
       2.000000e+00       7.180834e-02       7.180480e-02 
       2.000000e+00      -7.180572e-02       7.180480e-02 
       2.200000e+00      -7.180546e-02      -7.180972e-02 
       2.200000e+00       7.180861e-02      -7.180972e-02 
       2.200000e+00       7.180861e-02       7.180434e-02 
       2.200000e+00      -7.180546e-02       7.180434e-02 
       2.200000e+00      -7.180546e-02      -7.180972e-02 
       2.200000e+00       7.180861e-02      -7.180972e-02 
       2.200000e+00       7.180861e-02       7.180434e-02 
       2.200000e+00      -7.180546e-02       7.180434e-02 
       2.400000e+00      -7.180517e-02      -7.181021e-02 
       2.400000e+00       7.180889e-02      -7.181021e-02 
       2.400000e+00       7.180889e-02       7.180386e-02 
       2.400000e+00      -7.180517e-02       7.180386e-02 
       2.400000e+00      -7.180517e-02      -7.181021e-02 
       2.400000e+00       7.180889e-02      -7.181021e-02 
       2.400000e+00       7.180889e-02       7.180386e-02 
       2.400000e+00      -7.180517e-02       7.180386e-02 
       2.600000e+00      -7.180486e-02      -7.181073e-02 
       2.600000e+00       7.180920e-02      -7.181073e-02 
       2.600000e+00       7.180920e-02       7.180333e-02 
       2.600000e+00      -7.180486e-02       7.180333e-02 
       2.600000e+00      -7.180486e-02      -7.181073e-02 
       2.600000e+00       7.180920e-02      -7.181073e-02 
       2.600000e+00       7.180920e-02       7.180333e-02 
       2.600000e+00      -7.180486e-02       7.180333e-02 
       2.800000e+00      -7.180453e-02      -7.181129e-02 
       2.800000e+00       7.180953e-02      -7.181129e-02 
       2.800000e+00       7.180953e-02       7.180277e-02 
       2.800000e+00      -7.180453e-02       7.180277e-02 
       2.800000e+00      -7.180453e-02      -7.181129e-02 
       2.800000e+00       7.180953e-02      -7.181129e-02 
       2.800000e+00       7.180953e-02       7.180277e-02 
       2.800000e+00      -7.180453e-02       7.180277e-02 
       3.000000e+00      -7.180418e-02      -7.181189e-02 
       3.000000e+00       7.180988e-02      -7.181189e-02 
       3.000000e+00       7.180988e-02       7.180218e-02 
       3.000000e+00      -7.180418e-02       7.180218e-02 
       3.000000e+00      -7.180418e-02      -7.181189e-02 
       3.000000e+00       7.180988e-02      -7.181189e-02 
       3.000000e+00       7.180988e-02       7.180218e-02 
       3.000000e+00      -7.180418e-02       7.180218e-02 
       3.200000e+00      -7.180381e-02      -7.181252e-02 
       3.200000e+00       7.181025e-02      -7.181252e-02 
       3.200000e+00       7.181025e-02       7.180155e-02 
       3.200000e+00      -7.180381e-02       7.180155e-02 
       3.200000e+00      -7.180381e-02      -7.181252e-02 
       3.200000e+00       7.181025e-02      -7.181252e-02 
       3.200000e+00       7.181025e-02       7.180155e-02 
       3.200000e+00      -7.180381e-02       7.180155e-02 
       3.400000e+00      -7.180342e-02      -7.181318e-02 
       3.400000e+00       7.181064e-02      -7.181318e-02 
       3.400000e+00       7.181064e-02       7.180088e-02 
       3.400000e+00      -7.180342e-02       7.180088e-02 
       3.400000e+00      -7.180342e-02      -7.181318e-02 
       3.400000e+00       7.181064e-02      -7.181318e-02 
       3.400000e+00       7.181064e-02       7.180088e-02 
       3.400000e+00      -7.180342e-02       7.180088e-02 
       3.600000e+00      -7.180301e-02      -7.181388e-02 
       3.600000e+00       7.181105e-02      -7.181388e-02 
       3.600000e+00       7.181105e-02       7.180019e-02 
       3.600000e+00      -7.180301e-02       7.180019e-02 
       3.600000e+00      -7.180301e-02      -7.181388e-02 
       3.600000e+00       7.181105e-02      -7.181388e-02 
       3.600000e+00       7.181105e-02       7.180019e-02 
       3.600000e+00      -7.180301e-02       7.180019e-02 
       3.800000e+00      -7.180259e-02      -7.181460e-02 
       3.800000e+00       7.181148e-02      -7.181460e-02 
       3.800000e+00       7.181148e-02       7.179946e-02 
       3.800000e+00      -7.180259e-02       7.179946e-02 
       3.800000e+00      -7.180259e-02      -7.181460e-02 
       3.800000e+00       7.181148e-02      -7.181460e-02 
       3.800000e+00       7.181148e-02       7.179946e-02 
       3.800000e+00      -7.180259e-02       7.179946e-02 
       4.000000e+00      -7.180214e-02      -7.181536e-02 
       4.000000e+00       7.181193e-02      -7.181536e-02 
       4.000000e+00       7.181193e-02       7.179871e-02 
       4.000000e+00      -7.180214e-02       7.179871e-02 
       4.000000e+00      -7.180214e-02      -7.181536e-02 
       4.000000e+00       7.181193e-02      -7.181536e-02 
       4.000000e+00       7.181193e-02       7.179871e-02 
       4.000000e+00      -7.180214e-02       7.179871e-02 
       4.200000e+00      -7.180167e-02      -7.181615e-02 
[...]
POINT_DATA       800 
VECTORS Displacements float
       1.41924019e-23      -2.77555756e-17      -1.38777878e-17 
       3.13762483e-23       1.38777878e-17      -1.38777878e-17 
      -1.41924019e-23       2.77555756e-17       1.38777878e-17 
      -3.13762483e-23      -1.38777878e-17       1.38777878e-17 
      -7.14491244e-09       1.38888030e-08      -2.38206527e-08 
      -2.70278962e-08       1.38888016e-08      -2.38206262e-08 
       7.06664352e-09       1.38887798e-08      -2.38206302e-08 
       2.69496273e-08       1.38887812e-08      -2.38206567e-08 
      -7.14491244e-09       1.38888030e-08      -2.38206527e-08 
      -2.70278962e-08       1.38888016e-08      -2.38206262e-08 
       7.06664352e-09       1.38887798e-08      -2.38206302e-08 
       2.69496273e-08       1.38887812e-08      -2.38206567e-08 
      -1.41339622e-08       5.52027189e-08      -9.46405765e-08 
      -5.35202835e-08       5.52027135e-08      -9.46405189e-08 
       1.39772832e-08       5.52026745e-08      -9.46405347e-08 
       5.33636045e-08       5.52026799e-08      -9.46405923e-08 
      -1.41339622e-08       5.52027189e-08      -9.46405765e-08 
      -5.35202835e-08       5.52027135e-08      -9.46405189e-08 
       1.39772832e-08       5.52026745e-08      -9.46405347e-08 
       5.33636045e-08       5.52026799e-08      -9.46405923e-08 
      -2.09671478e-08       1.23413045e-07      -2.11496756e-07 
      -7.94771604e-08       1.23413033e-07      -2.11496663e-07 
       2.07319205e-08       1.23412981e-07      -2.11496698e-07 
       7.92419331e-08       1.23412993e-07      -2.11496791e-07 
      -2.09671478e-08       1.23413045e-07      -2.11496756e-07 
      -7.94771604e-08       1.23413033e-07      -2.11496663e-07 
       2.07319205e-08       1.23412981e-07      -2.11496698e-07 
       7.92419331e-08       1.23412993e-07      -2.11496791e-07 
      -2.76444678e-08       2.17991077e-07      -3.73426177e-07 
      -1.04898526e-07       2.17991056e-07      -3.73426045e-07 
       2.73305570e-08       2.17990995e-07      -3.73426106e-07 
       1.04584615e-07       2.17991016e-07      -3.73426238e-07 
      -2.76444678e-08       2.17991077e-07      -3.73426177e-07 
      -1.04898526e-07       2.17991056e-07      -3.73426045e-07 
       2.73305570e-08       2.17990995e-07      -3.73426106e-07 
       1.04584615e-07       2.17991016e-07      -3.73426238e-07 
      -3.41659212e-08       3.38408112e-07      -5.79465823e-07 
      -1.29784378e-07       3.38408080e-07      -5.79465648e-07 
       3.37731940e-08       3.38408014e-07      -5.79465741e-07 
       1.29391651e-07       3.38408045e-07      -5.79465917e-07 
      -3.41659212e-08       3.38408112e-07      -5.79465823e-07 
      -1.29784378e-07       3.38408080e-07      -5.79465648e-07 
       3.37731940e-08       3.38408014e-07      -5.79465741e-07 
       1.29391651e-07       3.38408045e-07      -5.79465917e-07 
      -4.05315059e-08       4.84135447e-07      -8.28652681e-07 
      -1.54134715e-07       4.84135402e-07      -8.28652459e-07 
       4.00598328e-08       4.84135334e-07      -8.28652590e-07 
       1.53663042e-07       4.84135379e-07      -8.28652812e-07 
      -4.05315059e-08       4.84135447e-07      -8.28652681e-07 
      -1.54134715e-07       4.84135402e-07      -8.28652459e-07 
       4.00598328e-08       4.84135334e-07      -8.28652590e-07 
       1.53663042e-07       4.84135379e-07      -8.28652812e-07 
      -4.67412207e-08       6.54644378e-07      -1.12002373e-06 
      -1.77949537e-07       6.54644318e-07      -1.12002346e-06 
       4.61904748e-08       6.54644252e-07      -1.12002364e-06 
       1.77398791e-07       6.54644311e-07      -1.12002391e-06 
      -4.67412207e-08       6.54644378e-07      -1.12002373e-06 
      -1.77949537e-07       6.54644318e-07      -1.12002346e-06 
       4.61904748e-08       6.54644252e-07      -1.12002364e-06 
       1.77398791e-07       6.54644311e-07      -1.12002391e-06 
      -5.27950641e-08       8.49406203e-07      -1.45261597e-06 
      -2.01228841e-07       8.49406126e-07      -1.45261564e-06 
       5.21651220e-08       8.49406064e-07      -1.45261586e-06 
       2.00598899e-07       8.49406141e-07      -1.45261619e-06 
      -5.27950641e-08       8.49406203e-07      -1.45261597e-06 
      -2.01228841e-07       8.49406126e-07      -1.45261564e-06 
       5.21651220e-08       8.49406064e-07      -1.45261586e-06 
       2.00598899e-07       8.49406141e-07      -1.45261619e-06 
      -5.86930353e-08       1.06789222e-06      -1.82546636e-06 
      -2.23972626e-07       1.06789212e-06      -1.82546598e-06 
       5.79837751e-08       1.06789207e-06      -1.82546626e-06 
       2.23263366e-07       1.06789216e-06      -1.82546664e-06 
      -5.86930353e-08       1.06789222e-06      -1.82546636e-06 
      -2.23972626e-07       1.06789212e-06      -1.82546598e-06 
       5.79837751e-08       1.06789207e-06      -1.82546626e-06 
       2.23263366e-07       1.06789216e-06      -1.82546664e-06 
      -6.44351323e-08       1.30957372e-06      -2.23761191e-06 
      -2.46180891e-07       1.30957360e-06      -2.23761147e-06 
       6.36464357e-08       1.30957356e-06      -2.23761181e-06 
       2.45392194e-07       1.30957367e-06      -2.23761225e-06 
      -6.44351323e-08       1.30957372e-06      -2.23761191e-06 
      -2.46180891e-07       1.30957360e-06      -2.23761147e-06 
       6.36464357e-08       1.30957356e-06      -2.23761181e-06 
       2.45392194e-07       1.30957367e-06      -2.23761225e-06 
      -7.00167924e-08       1.57393083e-06      -2.68810721e-06 
      -2.67868277e-07       1.57393069e-06      -2.68810672e-06 
       6.91769784e-08       1.57393067e-06      -2.68810712e-06 
       2.67028462e-07       1.57393080e-06      -2.68810760e-06 
      -7.00167924e-08       1.57393083e-06      -2.68810721e-06 
      -2.67868277e-07       1.57393069e-06      -2.68810672e-06 
       6.91769784e-08       1.57393067e-06      -2.68810712e-06 
       2.67028462e-07       1.57393080e-06      -2.68810760e-06 
      -7.54627285e-08       1.86048002e-06      -3.17608046e-06 
      -2.89079448e-07       1.86047986e-06      -3.17607992e-06 
       7.45714903e-08       1.86047986e-06      -3.17608038e-06 
       2.88188210e-07       1.86048002e-06      -3.17608092e-06 
      -7.54627285e-08       1.86048002e-06      -3.17608046e-06 
      -2.89079448e-07       1.86047986e-06      -3.17607992e-06 
       7.45714903e-08       1.86047986e-06      -3.17608038e-06 
       2.88188210e-07       1.86048002e-06      -3.17608092e-06 
      -8.07729381e-08       2.16874713e-06      -3.70067903e-06 
      -3.09814403e-07       2.16874695e-06      -3.70067844e-06 
       7.98299737e-08       2.16874698e-06      -3.70067897e-06 
       3.08871439e-07       2.16874716e-06      -3.70067956e-06 
      -8.07729381e-08       2.16874713e-06      -3.70067903e-06 
      -3.09814403e-07       2.16874695e-06      -3.70067844e-06 
       7.98299737e-08       2.16874698e-06      -3.70067897e-06 
       3.08871439e-07       2.16874716e-06      -3.70067956e-06 
      -8.59474163e-08       2.49825798e-06      -4.26105031e-06 
      -3.30073137e-07       2.49825777e-06      -4.26104966e-06 
       8.49524331e-08       2.49825783e-06      -4.26105026e-06 
       3.29078154e-07       2.49825804e-06      -4.26105091e-06 
      -8.59474163e-08       2.49825798e-06      -4.26105031e-06 
      -3.30073137e-07       2.49825777e-06      -4.26104966e-06 
       8.49524331e-08       2.49825783e-06      -4.26105026e-06 
       3.29078154e-07       2.49825804e-06      -4.26105091e-06 
      -9.09861617e-08       2.84853840e-06      -4.85634166e-06 
      -3.49855648e-07       2.84853817e-06      -4.85634096e-06 
       8.99388710e-08       2.84853825e-06      -4.85634163e-06 
       3.48808357e-07       2.84853849e-06      -4.85634234e-06 
      -9.09861617e-08       2.84853840e-06      -4.85634166e-06 
      -3.49855648e-07       2.84853817e-06      -4.85634096e-06 
       8.99388710e-08       2.84853825e-06      -4.85634163e-06 
       3.48808357e-07       2.84853849e-06      -4.85634234e-06 
      -9.58891695e-08       3.21911421e-06      -5.48570047e-06 
      -3.69161931e-07       3.21911395e-06      -5.48569970e-06 
       9.47892911e-08       3.21911407e-06      -5.48570045e-06 
       3.68062053e-07       3.21911433e-06      -5.48570122e-06 
      -9.58891695e-08       3.21911421e-06      -5.48570047e-06 
      -3.69161931e-07       3.21911395e-06      -5.48569970e-06 
       9.47892911e-08       3.21911407e-06      -5.48570045e-06 
       3.68062053e-07       3.21911433e-06      -5.48570122e-06 
      -1.00656436e-07       3.60951124e-06      -6.14827410e-06 
      -3.87991983e-07       3.60951096e-06      -6.14827327e-06 
       9.95036982e-08       3.60951111e-06      -6.14827410e-06 
       3.86839245e-07       3.60951140e-06      -6.14827492e-06 
      -1.00656436e-07       3.60951124e-06      -6.14827410e-06 
      -3.87991983e-07       3.60951096e-06      -6.14827327e-06 
       9.95036982e-08       3.60951111e-06      -6.14827410e-06 
       3.86839245e-07       3.60951140e-06      -6.14827492e-06 
      -1.05287958e-07       4.01925532e-06      -6.84320992e-06 
      -4.06345800e-07       4.01925501e-06      -6.84320904e-06 
       1.04082094e-07       4.01925519e-06      -6.84320995e-06 
       4.05139935e-07       4.01925551e-06      -6.84321083e-06 
      -1.05287958e-07       4.01925532e-06      -6.84320992e-06 
      -4.06345800e-07       4.01925501e-06      -6.84320904e-06 
       1.04082094e-07       4.01925519e-06      -6.84320995e-06 
       4.05139935e-07       4.01925551e-06      -6.84321083e-06 
      -1.09783733e-07       4.44787227e-06      -7.56965533e-06 
      -4.24223380e-07       4.44787193e-06      -7.56965438e-06 
       1.08524483e-07       4.44787215e-06      -7.56965537e-06 
       4.22964129e-07       4.44787250e-06      -7.56965632e-06 
      -1.09783733e-07       4.44787227e-06      -7.56965533e-06 
      -4.24223380e-07       4.44787193e-06      -7.56965438e-06 
       1.08524483e-07       4.44787215e-06      -7.56965537e-06 
       4.22964129e-07       4.44787250e-06      -7.56965632e-06 
      -1.14143757e-07       4.89488792e-06      -8.32675768e-06 
      -4.41624719e-07       4.89488755e-06      -8.32675667e-06 
       1.12830866e-07       4.89488781e-06      -8.32675774e-06 
       4.40311829e-07       4.89488818e-06      -8.32675875e-06 
      -1.14143756e-07       4.89488792e-06      -8.32675768e-06 
      -4.41624718e-07       4.89488755e-06      -8.32675667e-06 
       1.12830866e-07       4.89488781e-06      -8.32675774e-06 
       4.40311829e-07       4.89488818e-06      -8.32675875e-06 
      -1.18368303e-07       5.35983714e-06      -9.11368299e-06 
      -4.58569679e-07       5.35983674e-06      -9.11368193e-06 
       1.17021481e-07       5.35983704e-06      -9.11368309e-06 
       4.57222858e-07       5.35983745e-06      -9.11368415e-06 
      -1.18368303e-07       5.35983714e-06      -9.11368299e-06 
      -4.58569679e-07       5.35983674e-06      -9.11368193e-06 
       1.17021481e-07       5.35983704e-06      -9.11368309e-06 
       4.57222858e-07       5.35983745e-06      -9.11368415e-06 
      -1.22477338e-07       5.84229155e-06      -9.92967152e-06 
      -4.75098214e-07       5.84229112e-06      -9.92967040e-06 
       1.21096226e-07       5.84229147e-06      -9.92967164e-06 
       4.73717102e-07       5.84229190e-06      -9.92967275e-06 
      -1.22477338e-07       5.84229155e-06      -9.92967152e-06 
      -4.75098214e-07       5.84229112e-06      -9.92967040e-06 
       1.21096226e-07       5.84229147e-06      -9.92967164e-06 
       4.73717102e-07       5.84229190e-06      -9.92967275e-06 
      -1.26470857e-07       6.34183209e-06      -1.07739820e-05 
      -4.91210319e-07       6.34183163e-06      -1.07739808e-05 
       1.25055108e-07       6.34183202e-06      -1.07739821e-05 
       4.89794569e-07       6.34183248e-06      -1.07739833e-05 
      -1.26470857e-07       6.34183209e-06      -1.07739820e-05 
      -4.91210319e-07       6.34183163e-06      -1.07739808e-05 
       1.25055108e-07       6.34183202e-06      -1.07739821e-05 
       4.89794569e-07       6.34183248e-06      -1.07739833e-05 
      -1.30348857e-07       6.85803970e-06      -1.16458730e-05 
      -5.06905991e-07       6.85803921e-06      -1.16458718e-05 
       1.28898127e-07       6.85803964e-06      -1.16458732e-05 
       5.05455261e-07       6.85804014e-06      -1.16458745e-05 
      -1.30348857e-07       6.85803970e-06      -1.16458730e-05 
      -5.06905991e-07       6.85803921e-06      -1.16458718e-05 
       1.28898127e-07       6.85803964e-06      -1.16458732e-05 
       5.05455261e-07       6.85804014e-06      -1.16458745e-05 
      -1.34111333e-07       7.39049532e-06      -1.25446035e-05 
      -5.22185224e-07       7.39049480e-06      -1.25446022e-05 
       1.32625290e-07       7.39049528e-06      -1.25446037e-05 
       5.20699182e-07       7.39049580e-06      -1.25446050e-05 
      -1.34111333e-07       7.39049532e-06      -1.25446035e-05 
      -5.22185224e-07       7.39049480e-06      -1.25446022e-05 
       1.32625290e-07       7.39049528e-06      -1.25446037e-05 
       5.20699182e-07       7.39049580e-06      -1.25446050e-05 
      -1.37758279e-07       7.93877989e-06      -1.34694320e-05 
      -5.37048013e-07       7.93877934e-06      -1.34694306e-05 
       1.36236602e-07       7.93877986e-06      -1.34694322e-05 
       5.35526337e-07       7.93878042e-06      -1.34694336e-05 
      -1.37758279e-07       7.93877989e-06      -1.34694320e-05 
      -5.37048013e-07       7.93877934e-06      -1.34694306e-05 
       1.36236602e-07       7.93877986e-06      -1.34694322e-05 
       5.35526337e-07       7.93878042e-06      -1.34694336e-05 
      -1.41289691e-07       8.50247436e-06      -1.44196173e-05 
      -5.51494356e-07       8.50247377e-06      -1.44196159e-05 
       1.39732068e-07       8.50247434e-06      -1.44196175e-05 
       5.49936732e-07       8.50247493e-06      -1.44196190e-05 
      -1.41289691e-07       8.50247436e-06      -1.44196173e-05 
      -5.51494356e-07       8.50247377e-06      -1.44196159e-05 
       1.39732068e-07       8.50247434e-06      -1.44196175e-05 
       5.49936732e-07       8.50247493e-06      -1.44196190e-05 
      -1.44705565e-07       9.08115966e-06      -1.53944181e-05 
      -5.65524244e-07       9.08115904e-06      -1.53944166e-05 
       1.43111690e-07       9.08115965e-06      -1.53944184e-05 
       5.63930370e-07       9.08116027e-06      -1.53944198e-05 
      -1.44705565e-07       9.08115966e-06      -1.53944181e-05 
      -5.65524244e-07       9.08115904e-06      -1.53944166e-05 
       1.43111690e-07       9.08115965e-06      -1.53944184e-05 
       5.63930370e-07       9.08116027e-06      -1.53944198e-05 
      -1.48005896e-07       9.67441673e-06      -1.63930931e-05 
      -5.79137677e-07       9.67441608e-06      -1.63930916e-05 
       1.46375475e-07       9.67441674e-06      -1.63930934e-05 
       5.77507255e-07       9.67441738e-06      -1.63930949e-05 
      -1.48005896e-07       9.67441673e-06      -1.63930931e-05 
      -5.79137677e-07       9.67441608e-06      -1.63930916e-05 
       1.46375475e-07       9.67441674e-06      -1.63930934e-05 
       5.77507255e-07       9.67441738e-06      -1.63930949e-05 
      -1.51190682e-07       1.02818265e-05      -1.74149010e-05 
      -5.92334650e-07       1.02818258e-05      -1.74148994e-05 
       1.49523427e-07       1.02818265e-05      -1.74149014e-05 
       5.90667394e-07       1.02818272e-05      -1.74149029e-05 
      -1.51190682e-07       1.02818265e-05      -1.74149010e-05 
      -5.92334650e-07       1.02818258e-05      -1.74148994e-05 
       1.49523426e-07       1.02818265e-05      -1.74149014e-05 
       5.90667393e-07       1.02818272e-05      -1.74149029e-05 
      -1.54263550e-07       1.09029791e-05      -1.84591196e-05 
      -6.05138592e-07       1.09029784e-05      -1.84591180e-05 
       1.52572574e-07       1.09029792e-05      -1.84591200e-05 
       6.03447615e-07       1.09029799e-05      -1.84591216e-05 
      -1.54263550e-07       1.09029791e-05      -1.84591196e-05 
      -6.05138592e-07       1.09029784e-05      -1.84591180e-05 
       1.52572574e-07       1.09029792e-05      -1.84591200e-05 
       6.03447615e-07       1.09029799e-05      -1.84591216e-05 
      -1.57240572e-07       1.15375016e-05      -1.95251000e-05 
      -6.17585560e-07       1.15375009e-05      -1.95250983e-05 
       1.55525536e-07       1.15375017e-05      -1.95251004e-05 
       6.15870525e-07       1.15375024e-05      -1.95251021e-05 
      -1.57240572e-07       1.15375016e-05      -1.95251000e-05 
      -6.17585560e-07       1.15375009e-05      -1.95250983e-05 
       1.55525536e-07       1.15375017e-05      -1.95251004e-05 
       6.15870525e-07       1.15375024e-05      -1.95251021e-05 
      -1.60121738e-07       1.21850303e-05      -2.06122111e-05 
      -6.29675548e-07       1.21850295e-05      -2.06122093e-05 
       1.58382320e-07       1.21850304e-05      -2.06122115e-05 
       6.27936130e-07       1.21850312e-05      -2.06122132e-05 
      -1.60121738e-07       1.21850303e-05      -2.06122111e-05 
      -6.29675548e-07       1.21850295e-05      -2.06122093e-05 
       1.58382320e-07       1.21850304e-05      -2.06122115e-05 
       6.27936130e-07       1.21850312e-05      -2.06122132e-05 
      -1.62907049e-07       1.28452016e-05      -2.17198218e-05 
      -6.41408554e-07       1.28452008e-05      -2.17198201e-05 
       1.61142927e-07       1.28452017e-05      -2.17198223e-05 
       6.39644432e-07       1.28452025e-05      -2.17198241e-05 
      -1.62907049e-07       1.28452016e-05      -2.17198218e-05 
      -6.41408554e-07       1.28452008e-05      -2.17198201e-05 
       1.61142927e-07       1.28452017e-05      -2.17198223e-05 
       6.39644432e-07       1.28452025e-05      -2.17198241e-05 
      -1.65596497e-07       1.35176518e-05      -2.28473012e-05 
      -6.52784571e-07       1.35176510e-05      -2.28472993e-05 
       1.63807363e-07       1.35176519e-05      -2.28473017e-05 
       6.50995437e-07       1.35176527e-05      -2.28473035e-05 
      -1.65596497e-07       1.35176518e-05      -2.28473012e-05 
      -6.52784571e-07       1.35176510e-05      -2.28472993e-05 
       1.63807363e-07       1.35176519e-05      -2.28473017e-05 
       6.50995437e-07       1.35176527e-05      -2.28473035e-05 
      -1.68190080e-07       1.42020173e-05      -2.39940180e-05 
      -6.63803596e-07       1.42020164e-05      -2.39940161e-05 
       1.66375633e-07       1.42020174e-05      -2.39940185e-05 
       6.61989151e-07       1.42020183e-05      -2.39940204e-05 
      -1.68190080e-07       1.42020173e-05      -2.39940180e-05 
      -6.63803596e-07       1.42020164e-05      -2.39940161e-05 
       1.66375633e-07       1.42020174e-05      -2.39940185e-05 
       6.61989151e-07       1.42020183e-05      -2.39940204e-05 
      -1.70687789e-07       1.48979344e-05      -2.51593413e-05 
      -6.74465623e-07       1.48979335e-05      -2.51593393e-05 
       1.68847742e-07       1.48979345e-05      -2.51593418e-05 
       6.72625577e-07       1.48979354e-05      -2.51593437e-05 
      -1.70687789e-07       1.48979344e-05      -2.51593413e-05 
      -6.74465623e-07       1.48979335e-05      -2.51593393e-05 
       1.68847742e-07       1.48979345e-05      -2.51593418e-05 
       6.72625577e-07       1.48979354e-05      -2.51593437e-05 
      -1.73089621e-07       1.56050395e-05      -2.63426399e-05 
      -6.84770646e-07       1.56050386e-05      -2.63426379e-05 
       1.71223697e-07       1.56050396e-05      -2.63426404e-05 
       6.82904721e-07       1.56050405e-05      -2.63426424e-05 
      -1.73089621e-07       1.56050395e-05      -2.63426399e-05 
      -6.84770646e-07       1.56050386e-05      -2.63426379e-05 