# vtk DataFile Version 2.0
./output/onsasExample_BladeCantileverBeamNoPitch_windVel3DDynamic 3D/onsasExample_BladeCantileverBeamNoPitch_windVel3DDynamic 3D_0122.vtk
ASCII
DATASET UNSTRUCTURED_GRID

POINTS 800 float
       1.705999e-23      -7.180703e-02      -7.180703e-02 
       6.278870e-24       7.180703e-02      -7.180703e-02 
      -1.705999e-23       7.180703e-02       7.180703e-02 
      -6.278870e-24      -7.180703e-02       7.180703e-02 
       2.000000e-01      -7.180702e-02      -7.180706e-02 
       2.000000e-01       7.180705e-02      -7.180706e-02 
       2.000000e-01       7.180705e-02       7.180701e-02 
       2.000000e-01      -7.180702e-02       7.180701e-02 
       2.000000e-01      -7.180702e-02      -7.180706e-02 
       2.000000e-01       7.180705e-02      -7.180706e-02 
       2.000000e-01       7.180705e-02       7.180701e-02 
       2.000000e-01      -7.180702e-02       7.180701e-02 
       4.000000e-01      -7.180698e-02      -7.180713e-02 
       3.999999e-01       7.180709e-02      -7.180713e-02 
       4.000000e-01       7.180709e-02       7.180694e-02 
       4.000001e-01      -7.180698e-02       7.180694e-02 
       4.000000e-01      -7.180698e-02      -7.180713e-02 
       3.999999e-01       7.180709e-02      -7.180713e-02 
       4.000000e-01       7.180709e-02       7.180694e-02 
       4.000001e-01      -7.180698e-02       7.180694e-02 
       6.000000e-01      -7.180691e-02      -7.180725e-02 
       5.999999e-01       7.180716e-02      -7.180725e-02 
       6.000000e-01       7.180716e-02       7.180682e-02 
       6.000001e-01      -7.180691e-02       7.180682e-02 
       6.000000e-01      -7.180691e-02      -7.180725e-02 
       5.999999e-01       7.180716e-02      -7.180725e-02 
       6.000000e-01       7.180716e-02       7.180682e-02 
       6.000001e-01      -7.180691e-02       7.180682e-02 
       8.000000e-01      -7.180682e-02      -7.180741e-02 
       7.999999e-01       7.180725e-02      -7.180741e-02 
       8.000000e-01       7.180725e-02       7.180665e-02 
       8.000001e-01      -7.180682e-02       7.180665e-02 
       8.000000e-01      -7.180682e-02      -7.180741e-02 
       7.999999e-01       7.180725e-02      -7.180741e-02 
       8.000000e-01       7.180725e-02       7.180665e-02 
       8.000001e-01      -7.180682e-02       7.180665e-02 
       1.000000e+00      -7.180669e-02      -7.180762e-02 
       9.999999e-01       7.180737e-02      -7.180762e-02 
       1.000000e+00       7.180737e-02       7.180644e-02 
       1.000000e+00      -7.180669e-02       7.180644e-02 
       1.000000e+00      -7.180669e-02      -7.180762e-02 
       9.999999e-01       7.180737e-02      -7.180762e-02 
       1.000000e+00       7.180737e-02       7.180644e-02 
       1.000000e+00      -7.180669e-02       7.180644e-02 
       1.200000e+00      -7.180655e-02      -7.180787e-02 
       1.200000e+00       7.180752e-02      -7.180787e-02 
       1.200000e+00       7.180752e-02       7.180619e-02 
       1.200000e+00      -7.180655e-02       7.180619e-02 
       1.200000e+00      -7.180655e-02      -7.180787e-02 
       1.200000e+00       7.180752e-02      -7.180787e-02 
       1.200000e+00       7.180752e-02       7.180619e-02 
       1.200000e+00      -7.180655e-02       7.180619e-02 
       1.400000e+00      -7.180638e-02      -7.180817e-02 
       1.400000e+00       7.180769e-02      -7.180817e-02 
       1.400000e+00       7.180769e-02       7.180590e-02 
       1.400000e+00      -7.180638e-02       7.180590e-02 
       1.400000e+00      -7.180638e-02      -7.180817e-02 
       1.400000e+00       7.180769e-02      -7.180817e-02 
       1.400000e+00       7.180769e-02       7.180590e-02 
       1.400000e+00      -7.180638e-02       7.180590e-02 
       1.600000e+00      -7.180618e-02      -7.180851e-02 
       1.600000e+00       7.180788e-02      -7.180851e-02 
       1.600000e+00       7.180788e-02       7.180556e-02 
       1.600000e+00      -7.180618e-02       7.180556e-02 
       1.600000e+00      -7.180618e-02      -7.180851e-02 
       1.600000e+00       7.180788e-02      -7.180851e-02 
       1.600000e+00       7.180788e-02       7.180556e-02 
       1.600000e+00      -7.180618e-02       7.180556e-02 
       1.800000e+00      -7.180597e-02      -7.180889e-02 
       1.800000e+00       7.180810e-02      -7.180889e-02 
       1.800000e+00       7.180810e-02       7.180518e-02 
       1.800000e+00      -7.180597e-02       7.180518e-02 
       1.800000e+00      -7.180597e-02      -7.180889e-02 
       1.800000e+00       7.180810e-02      -7.180889e-02 
       1.800000e+00       7.180810e-02       7.180518e-02 
       1.800000e+00      -7.180597e-02       7.180518e-02 
       2.000000e+00      -7.180572e-02      -7.180931e-02 
       2.000000e+00       7.180834e-02      -7.180931e-02 
       2.000000e+00       7.180834e-02       7.180476e-02 
       2.000000e+00      -7.180572e-02       7.180476e-02 
       2.000000e+00      -7.180572e-02      -7.180931e-02 
       2.000000e+00       7.180834e-02      -7.180931e-02 
       2.000000e+00       7.180834e-02       7.180476e-02 
       2.000000e+00      -7.180572e-02       7.180476e-02 
       2.200000e+00      -7.180546e-02      -7.180977e-02 
       2.200000e+00       7.180861e-02      -7.180977e-02 
       2.200000e+00       7.180861e-02       7.180430e-02 
       2.200000e+00      -7.180546e-02       7.180430e-02 
       2.200000e+00      -7.180546e-02      -7.180977e-02 
       2.200000e+00       7.180861e-02      -7.180977e-02 
       2.200000e+00       7.180861e-02       7.180430e-02 
       2.200000e+00      -7.180546e-02       7.180430e-02 
       2.400000e+00      -7.180517e-02      -7.181026e-02 
       2.400000e+00       7.180889e-02      -7.181026e-02 
       2.400000e+00       7.180889e-02       7.180380e-02 
       2.400000e+00      -7.180517e-02       7.180380e-02 
       2.400000e+00      -7.180517e-02      -7.181026e-02 
       2.400000e+00       7.180889e-02      -7.181026e-02 
       2.400000e+00       7.180889e-02       7.180380e-02 
       2.400000e+00      -7.180517e-02       7.180380e-02 
       2.600000e+00      -7.180486e-02      -7.181080e-02 
       2.600000e+00       7.180920e-02      -7.181080e-02 
       2.600000e+00       7.180920e-02       7.180327e-02 
       2.600000e+00      -7.180486e-02       7.180327e-02 
       2.600000e+00      -7.180486e-02      -7.181080e-02 
       2.600000e+00       7.180920e-02      -7.181080e-02 
       2.600000e+00       7.180920e-02       7.180327e-02 
       2.600000e+00      -7.180486e-02       7.180327e-02 
       2.800000e+00      -7.180453e-02      -7.181137e-02 
       2.800000e+00       7.180953e-02      -7.181137e-02 
       2.800000e+00       7.180953e-02       7.180270e-02 
       2.800000e+00      -7.180453e-02       7.180270e-02 
       2.800000e+00      -7.180453e-02      -7.181137e-02 
       2.800000e+00       7.180953e-02      -7.181137e-02 
       2.800000e+00       7.180953e-02       7.180270e-02 
       2.800000e+00      -7.180453e-02       7.180270e-02 
       3.000000e+00      -7.180418e-02      -7.181197e-02 
       3.000000e+00       7.180988e-02      -7.181197e-02 
       3.000000e+00       7.180988e-02       7.180209e-02 
       3.000000e+00      -7.180418e-02       7.180209e-02 
       3.000000e+00      -7.180418e-02      -7.181197e-02 
       3.000000e+00       7.180988e-02      -7.181197e-02 
       3.000000e+00       7.180988e-02       7.180209e-02 
       3.000000e+00      -7.180418e-02       7.180209e-02 
       3.200000e+00      -7.180381e-02      -7.181261e-02 
       3.200000e+00       7.181025e-02      -7.181261e-02 
       3.200000e+00       7.181025e-02       7.180145e-02 
       3.200000e+00      -7.180381e-02       7.180145e-02 
       3.200000e+00      -7.180381e-02      -7.181261e-02 
       3.200000e+00       7.181025e-02      -7.181261e-02 
       3.200000e+00       7.181025e-02       7.180145e-02 
       3.200000e+00      -7.180381e-02       7.180145e-02 
       3.400000e+00      -7.180342e-02      -7.181329e-02 
       3.400000e+00       7.181064e-02      -7.181329e-02 
       3.400000e+00       7.181064e-02       7.180078e-02 
       3.400000e+00      -7.180342e-02       7.180078e-02 
       3.400000e+00      -7.180342e-02      -7.181329e-02 
       3.400000e+00       7.181064e-02      -7.181329e-02 
       3.400000e+00       7.181064e-02       7.180078e-02 
       3.400000e+00      -7.180342e-02       7.180078e-02 
       3.600000e+00      -7.180301e-02      -7.181400e-02 
       3.600000e+00       7.181105e-02      -7.181400e-02 
       3.600000e+00       7.181105e-02       7.180007e-02 
       3.600000e+00      -7.180301e-02       7.180007e-02 
       3.600000e+00      -7.180301e-02      -7.181400e-02 
       3.600000e+00       7.181105e-02      -7.181400e-02 
       3.600000e+00       7.181105e-02       7.180007e-02 
       3.600000e+00      -7.180301e-02       7.180007e-02 
       3.800000e+00      -7.180258e-02      -7.181474e-02 
       3.800000e+00       7.181148e-02      -7.181474e-02 
       3.800000e+00       7.181148e-02       7.179933e-02 
       3.800000e+00      -7.180258e-02       7.179933e-02 
       3.800000e+00      -7.180258e-02      -7.181474e-02 
       3.800000e+00       7.181148e-02      -7.181474e-02 
       3.800000e+00       7.181148e-02       7.179933e-02 
       3.800000e+00      -7.180258e-02       7.179933e-02 
       4.000000e+00      -7.180214e-02      -7.181551e-02 
       4.000000e+00       7.181193e-02      -7.181551e-02 
       4.000000e+00       7.181193e-02       7.179856e-02 
       4.000000e+00      -7.180214e-02       7.179856e-02 
       4.000000e+00      -7.180214e-02      -7.181551e-02 
       4.000000e+00       7.181193e-02      -7.181551e-02 
       4.000000e+00       7.181193e-02       7.179856e-02 
       4.000000e+00      -7.180214e-02       7.179856e-02 
       4.200000e+00      -7.180167e-02      -7.181631e-02 
[...]
POINT_DATA       800 
VECTORS Displacements float
       1.70599940e-23      -1.38777878e-17       0.00000000e+00 
       6.27886993e-24       1.38777878e-17      -1.38777878e-17 
      -1.70599940e-23       1.38777878e-17       0.00000000e+00 
      -6.27886993e-24      -1.38777878e-17       1.38777878e-17 
      -7.40740391e-09       1.38861992e-08      -2.41855945e-08 
      -2.72868055e-08       1.38861979e-08      -2.41855673e-08 
       7.33209057e-09       1.38861755e-08      -2.41855714e-08 
       2.72114922e-08       1.38861768e-08      -2.41855986e-08 
      -7.40740391e-09       1.38861992e-08      -2.41855945e-08 
      -2.72868055e-08       1.38861979e-08      -2.41855673e-08 
       7.33209057e-09       1.38861755e-08      -2.41855714e-08 
       2.72114922e-08       1.38861768e-08      -2.41855986e-08 
      -1.46592209e-08       5.51931817e-08      -9.61017305e-08 
      -5.40393242e-08       5.51931764e-08      -9.61016716e-08 
       1.45084498e-08       5.51931362e-08      -9.61016879e-08 
       5.38885531e-08       5.51931416e-08      -9.61017469e-08 
      -1.46592209e-08       5.51931817e-08      -9.61017305e-08 
      -5.40393242e-08       5.51931764e-08      -9.61016716e-08 
       1.45084498e-08       5.51931362e-08      -9.61016879e-08 
       5.38885531e-08       5.51931416e-08      -9.61017469e-08 
      -2.17554497e-08       1.23393562e-07      -2.14787474e-07 
      -8.02575546e-08       1.23393550e-07      -2.14787379e-07 
       2.15290792e-08       1.23393496e-07      -2.14787415e-07 
       8.00311841e-08       1.23393508e-07      -2.14787510e-07 
      -2.17554497e-08       1.23393562e-07      -2.14787474e-07 
      -8.02575546e-08       1.23393550e-07      -2.14787379e-07 
       2.15290792e-08       1.23393496e-07      -2.14787415e-07 
       8.00311841e-08       1.23393508e-07      -2.14787510e-07 
      -2.86960887e-08       2.17959954e-07      -3.79281892e-07 
      -1.05941495e-07       2.17959934e-07      -3.79281756e-07 
       2.83939801e-08       2.17959870e-07      -3.79281819e-07 
       1.05639387e-07       2.17959891e-07      -3.79281955e-07 
      -2.86960887e-08       2.17959954e-07      -3.79281892e-07 
      -1.05941495e-07       2.17959934e-07      -3.79281756e-07 
       2.83939801e-08       2.17959870e-07      -3.79281819e-07 
       1.05639387e-07       2.17959891e-07      -3.79281955e-07 
      -3.54811366e-08       3.38364973e-07      -5.88624049e-07 
      -1.31091145e-07       3.38364941e-07      -5.88623870e-07 
       3.51031537e-08       3.38364873e-07      -5.88623966e-07 
       1.30713162e-07       3.38364904e-07      -5.88624145e-07 
      -3.54811366e-08       3.38364973e-07      -5.88624049e-07 
      -1.31091145e-07       3.38364941e-07      -5.88623870e-07 
       3.51031537e-08       3.38364873e-07      -5.88623966e-07 
       1.30713162e-07       3.38364904e-07      -5.88624145e-07 
      -4.21105912e-08       4.84081233e-07      -8.41853012e-07 
      -1.55706501e-07       4.84081188e-07      -8.41852785e-07 
       4.16566022e-08       4.84081117e-07      -8.41852921e-07 
       1.55252512e-07       4.84081162e-07      -8.41853148e-07 
      -4.21105912e-08       4.84081233e-07      -8.41853012e-07 
      -1.55706501e-07       4.84081188e-07      -8.41852785e-07 
       4.16566022e-08       4.84081117e-07      -8.41852921e-07 
       1.55252512e-07       4.84081162e-07      -8.41853148e-07 
      -4.85844527e-08       6.54581348e-07      -1.13800785e-06 
      -1.79787564e-07       6.54581288e-07      -1.13800757e-06 
       4.80543259e-08       6.54581218e-07      -1.13800775e-06 
       1.79257438e-07       6.54581278e-07      -1.13800803e-06 
      -4.85844527e-08       6.54581348e-07      -1.13800785e-06 
      -1.79787564e-07       6.54581288e-07      -1.13800757e-06 
       4.80543259e-08       6.54581218e-07      -1.13800775e-06 
       1.79257438e-07       6.54581278e-07      -1.13800803e-06 
      -5.49027181e-08       8.49337933e-07      -1.47612762e-06 
      -2.03334332e-07       8.49337856e-07      -1.47612729e-06 
       5.42963274e-08       8.49337791e-07      -1.47612752e-06 
       2.02727941e-07       8.49337867e-07      -1.47612785e-06 
      -5.49027181e-08       8.49337933e-07      -1.47612762e-06 
      -2.03334332e-07       8.49337856e-07      -1.47612729e-06 
       5.42963274e-08       8.49337791e-07      -1.47612752e-06 
       2.02727941e-07       8.49337867e-07      -1.47612785e-06 
      -6.10653872e-08       1.06782360e-06      -1.85525140e-06 
      -2.26346802e-07       1.06782351e-06      -1.85525101e-06 
       6.03826074e-08       1.06782345e-06      -1.85525130e-06 
       2.25664022e-07       1.06782354e-06      -1.85525168e-06 
      -6.10653872e-08       1.06782360e-06      -1.85525140e-06 
      -2.26346802e-07       1.06782351e-06      -1.85525101e-06 
       6.03826074e-08       1.06782345e-06      -1.85525130e-06 
       2.25664022e-07       1.06782354e-06      -1.85525168e-06 
      -6.70724571e-08       1.30951097e-06      -2.27441825e-06 
      -2.48824974e-07       1.30951085e-06      -2.27441780e-06 
       6.63131674e-08       1.30951081e-06      -2.27441814e-06 
       2.48065684e-07       1.30951092e-06      -2.27441859e-06 
      -6.70724571e-08       1.30951097e-06      -2.27441825e-06 
      -2.48824974e-07       1.30951085e-06      -2.27441780e-06 
       6.63131678e-08       1.30951081e-06      -2.27441814e-06 
       2.48065684e-07       1.30951092e-06      -2.27441859e-06 
      -7.29207472e-08       1.57388211e-06      -2.73268734e-06 
      -2.70785909e-07       1.57388197e-06      -2.73268684e-06 
       7.21132634e-08       1.57388195e-06      -2.73268725e-06 
       2.69978425e-07       1.57388208e-06      -2.73268775e-06 
      -7.29207472e-08       1.57388211e-06      -2.73268734e-06 
      -2.70785909e-07       1.57388197e-06      -2.73268684e-06 
       7.21132634e-08       1.57388195e-06      -2.73268725e-06 
       2.69978425e-07       1.57388208e-06      -2.73268775e-06 
      -7.86338497e-08       1.86045616e-06      -3.22919266e-06 
      -2.92272871e-07       1.86045600e-06      -3.22919211e-06 
       7.77778566e-08       1.86045600e-06      -3.22919258e-06 
       2.91416878e-07       1.86045616e-06      -3.22919313e-06 
      -7.86338497e-08       1.86045616e-06      -3.22919266e-06 
      -2.92272871e-07       1.86045600e-06      -3.22919211e-06 
       7.77778566e-08       1.86045600e-06      -3.22919258e-06 
       2.91416878e-07       1.86045616e-06      -3.22919313e-06 
      -8.42117625e-08       2.16876132e-06      -3.76308542e-06 
      -3.13285858e-07       2.16876114e-06      -3.76308481e-06 
       8.33069485e-08       2.16876116e-06      -3.76308536e-06 
       3.12381044e-07       2.16876135e-06      -3.76308596e-06 
      -8.42117625e-08       2.16876132e-06      -3.76308542e-06 
      -3.13285858e-07       2.16876114e-06      -3.76308481e-06 
       8.33069485e-08       2.16876116e-06      -3.76308536e-06 
       3.12381044e-07       2.16876135e-06      -3.76308596e-06 
      -8.96544812e-08       2.49832579e-06      -4.33351685e-06 
      -3.33824865e-07       2.49832558e-06      -4.33351619e-06 
       8.87005447e-08       2.49832564e-06      -4.33351681e-06 
       3.32870929e-07       2.49832585e-06      -4.33351748e-06 
      -8.96544812e-08       2.49832579e-06      -4.33351685e-06 
      -3.33824865e-07       2.49832558e-06      -4.33351619e-06 
       8.87005447e-08       2.49832564e-06      -4.33351681e-06 
       3.32870929e-07       2.49832585e-06      -4.33351748e-06 
      -9.49620031e-08       2.84867778e-06      -4.93963820e-06 
      -3.53889889e-07       2.84867754e-06      -4.93963748e-06 
       9.39586480e-08       2.84867763e-06      -4.93963818e-06 
       3.52886534e-07       2.84867786e-06      -4.93963890e-06 
      -9.49620031e-08       2.84867778e-06      -4.93963820e-06 
      -3.53889889e-07       2.84867754e-06      -4.93963748e-06 
       9.39586480e-08       2.84867763e-06      -4.93963818e-06 
       3.52886534e-07       2.84867786e-06      -4.93963890e-06 
      -1.00134325e-07       3.21934547e-06      -5.58060069e-06 
      -3.73480928e-07       3.21934521e-06      -5.58059991e-06 
       9.90812605e-08       3.21934533e-06      -5.58060069e-06 
       3.72427864e-07       3.21934559e-06      -5.58060147e-06 
      -1.00134325e-07       3.21934547e-06      -5.58060069e-06 
      -3.73480928e-07       3.21934521e-06      -5.58059991e-06 
       9.90812605e-08       3.21934533e-06      -5.58060069e-06 
       3.72427864e-07       3.21934559e-06      -5.58060147e-06 
      -1.05171442e-07       3.60985708e-06      -6.25555555e-06 
      -3.92597976e-07       3.60985679e-06      -6.25555471e-06 
       1.04068388e-07       3.60985694e-06      -6.25555557e-06 
       3.91494922e-07       3.60985723e-06      -6.25555641e-06 
      -1.05171442e-07       3.60985708e-06      -6.25555555e-06 
      -3.92597976e-07       3.60985679e-06      -6.25555471e-06 
       1.04068388e-07       3.60985694e-06      -6.25555557e-06 
       3.91494922e-07       3.60985723e-06      -6.25555641e-06 
      -1.10073351e-07       4.01974079e-06      -6.96365401e-06 
      -4.11241031e-07       4.01974048e-06      -6.96365311e-06 
       1.08920033e-07       4.01974067e-06      -6.96365405e-06 
       4.10087713e-07       4.01974098e-06      -6.96365495e-06 
      -1.10073351e-07       4.01974079e-06      -6.96365401e-06 
      -4.11241031e-07       4.01974048e-06      -6.96365311e-06 
       1.08920033e-07       4.01974067e-06      -6.96365405e-06 
       4.10087713e-07       4.01974098e-06      -6.96365495e-06 
      -1.14840049e-07       4.44852482e-06      -7.70404730e-06 
      -4.29410088e-07       4.44852448e-06      -7.70404634e-06 
       1.13636199e-07       4.44852470e-06      -7.70404736e-06 
       4.28206238e-07       4.44852505e-06      -7.70404833e-06 
      -1.14840049e-07       4.44852482e-06      -7.70404730e-06 
      -4.29410088e-07       4.44852448e-06      -7.70404634e-06 
       1.13636199e-07       4.44852470e-06      -7.70404736e-06 
       4.28206238e-07       4.44852505e-06      -7.70404833e-06 
      -1.19471533e-07       4.89573736e-06      -8.47588666e-06 
      -4.47105147e-07       4.89573699e-06      -8.47588563e-06 
       1.18216889e-07       4.89573725e-06      -8.47588674e-06 
       4.45850501e-07       4.89573762e-06      -8.47588777e-06 
      -1.19471534e-07       4.89573736e-06      -8.47588666e-06 
      -4.47105147e-07       4.89573699e-06      -8.47588563e-06 
       1.18216888e-07       4.89573725e-06      -8.47588674e-06 
       4.45850501e-07       4.89573762e-06      -8.47588777e-06 
      -1.23968176e-07       5.36091592e-06      -9.27834248e-06 
      -4.64346543e-07       5.36091551e-06      -9.27834139e-06 
       1.22682270e-07       5.36091582e-06      -9.27834259e-06 
       4.63060636e-07       5.36091622e-06      -9.27834368e-06 
      -1.23968176e-07       5.36091592e-06      -9.27834248e-06 
      -4.64346543e-07       5.36091551e-06      -9.27834139e-06 
       1.22682270e-07       5.36091582e-06      -9.27834259e-06 
       4.63060636e-07       5.36091622e-06      -9.27834368e-06 
      -1.28348791e-07       5.84363474e-06      -1.01106574e-05 
      -4.81172692e-07       5.84363431e-06      -1.01106563e-05 
       1.27031250e-07       5.84363466e-06      -1.01106576e-05 
       4.79855151e-07       5.84363509e-06      -1.01106587e-05 
      -1.28348791e-07       5.84363474e-06      -1.01106574e-05 
      -4.81172692e-07       5.84363431e-06      -1.01106563e-05 
       1.27031250e-07       5.84363466e-06      -1.01106576e-05 
       4.79855151e-07       5.84363509e-06      -1.01106587e-05 
      -1.32613372e-07       6.34347712e-06      -1.09720911e-05 
      -4.97583586e-07       6.34347666e-06      -1.09720899e-05 
       1.31263837e-07       6.34347706e-06      -1.09720913e-05 
       4.96234051e-07       6.34347752e-06      -1.09720925e-05 
      -1.32613372e-07       6.34347712e-06      -1.09720911e-05 
      -4.97583586e-07       6.34347666e-06      -1.09720899e-05 
       1.31263837e-07       6.34347706e-06      -1.09720913e-05 
       4.96234051e-07       6.34347752e-06      -1.09720925e-05 
      -1.36761916e-07       6.86002637e-06      -1.18619032e-05 
      -5.13579223e-07       6.86002588e-06      -1.18619019e-05 
       1.35380031e-07       6.86002632e-06      -1.18619034e-05 
       5.12197338e-07       6.86002682e-06      -1.18619046e-05 
      -1.36761916e-07       6.86002637e-06      -1.18619032e-05 
      -5.13579223e-07       6.86002588e-06      -1.18619019e-05 
       1.35380031e-07       6.86002632e-06      -1.18619034e-05 
       5.12197338e-07       6.86002682e-06      -1.18619046e-05 
      -1.40794418e-07       7.39286579e-06      -1.27793532e-05 
      -5.29159598e-07       7.39286526e-06      -1.27793519e-05 
       1.39379839e-07       7.39286575e-06      -1.27793534e-05 
       5.27745019e-07       7.39286627e-06      -1.27793547e-05 
      -1.40794418e-07       7.39286579e-06      -1.27793532e-05 
      -5.29159598e-07       7.39286526e-06      -1.27793519e-05 
       1.39379839e-07       7.39286575e-06      -1.27793534e-05 
       5.27745019e-07       7.39286627e-06      -1.27793547e-05 
      -1.44710873e-07       7.94157866e-06      -1.37237008e-05 
      -5.44324705e-07       7.94157810e-06      -1.37236994e-05 
       1.43263265e-07       7.94157864e-06      -1.37237011e-05 
       5.42877097e-07       7.94157919e-06      -1.37237024e-05 
      -1.44710873e-07       7.94157866e-06      -1.37237008e-05 
      -5.44324705e-07       7.94157810e-06      -1.37236994e-05 
       1.43263265e-07       7.94157864e-06      -1.37237011e-05 
       5.42877097e-07       7.94157919e-06      -1.37237024e-05 
      -1.48511277e-07       8.50574830e-06      -1.46942056e-05 
      -5.59074541e-07       8.50574771e-06      -1.46942042e-05 
       1.47030314e-07       8.50574829e-06      -1.46942059e-05 
       5.57593578e-07       8.50574888e-06      -1.46942073e-05 
      -1.48511277e-07       8.50574830e-06      -1.46942056e-05 
      -5.59074541e-07       8.50574771e-06      -1.46942042e-05 
       1.47030314e-07       8.50574829e-06      -1.46942059e-05 
       5.57593578e-07       8.50574888e-06      -1.46942073e-05 
      -1.52195624e-07       9.08495799e-06      -1.56901272e-05 
      -5.73409100e-07       9.08495738e-06      -1.56901257e-05 
       1.50680991e-07       9.08495800e-06      -1.56901275e-05 
       5.71894467e-07       9.08495862e-06      -1.56901290e-05 
      -1.52195624e-07       9.08495799e-06      -1.56901272e-05 
      -5.73409100e-07       9.08495738e-06      -1.56901257e-05 
       1.50680991e-07       9.08495800e-06      -1.56901275e-05 
       5.71894467e-07       9.08495862e-06      -1.56901290e-05 
      -1.55763912e-07       9.67879105e-06      -1.67107253e-05 
      -5.87328379e-07       9.67879040e-06      -1.67107237e-05 
       1.54215299e-07       9.67879108e-06      -1.67107256e-05 
       5.85779767e-07       9.67879173e-06      -1.67107272e-05 
      -1.55763912e-07       9.67879105e-06      -1.67107253e-05 
      -5.87328379e-07       9.67879040e-06      -1.67107237e-05 
       1.54215299e-07       9.67879108e-06      -1.67107256e-05 
       5.85779767e-07       9.67879173e-06      -1.67107272e-05 
      -1.59216135e-07       1.02868308e-05      -1.77552594e-05 
      -6.00832373e-07       1.02868301e-05      -1.77552577e-05 
       1.57633243e-07       1.02868308e-05      -1.77552597e-05 
       5.99249482e-07       1.02868315e-05      -1.77552614e-05 
      -1.59216134e-07       1.02868308e-05      -1.77552594e-05 
      -6.00832372e-07       1.02868301e-05      -1.77552577e-05 
       1.57633244e-07       1.02868308e-05      -1.77552597e-05 
       5.99249482e-07       1.02868315e-05      -1.77552614e-05 
      -1.62555434e-07       1.09086697e-05      -1.88230075e-05 
      -6.13944002e-07       1.09086689e-05      -1.88230059e-05 
       1.60950994e-07       1.09086697e-05      -1.88230080e-05 
       6.12339561e-07       1.09086704e-05      -1.88230096e-05 
      -1.62555434e-07       1.09086697e-05      -1.88230075e-05 
      -6.13944002e-07       1.09086689e-05      -1.88230059e-05 
       1.60950994e-07       1.09086697e-05      -1.88230080e-05 
       6.12339561e-07       1.09086704e-05      -1.88230096e-05 
      -1.65796882e-07       1.15439367e-05      -1.99133182e-05 
      -6.26697914e-07       1.15439360e-05      -1.99133164e-05 
       1.64170538e-07       1.15439368e-05      -1.99133186e-05 
       6.25071570e-07       1.15439376e-05      -1.99133203e-05 
      -1.65796882e-07       1.15439367e-05      -1.99133182e-05 
      -6.26697914e-07       1.15439360e-05      -1.99133164e-05 
       1.64170538e-07       1.15439368e-05      -1.99133186e-05 
       6.25071570e-07       1.15439376e-05      -1.99133203e-05 
      -1.68940473e-07       1.21922701e-05      -2.10255563e-05 
      -6.39094102e-07       1.21922694e-05      -2.10255545e-05 
       1.67291884e-07       1.21922702e-05      -2.10255568e-05 
       6.37445513e-07       1.21922710e-05      -2.10255585e-05 
      -1.68940473e-07       1.21922701e-05      -2.10255563e-05 
      -6.39094102e-07       1.21922694e-05      -2.10255545e-05 
       1.67291884e-07       1.21922702e-05      -2.10255568e-05 
       6.37445513e-07       1.21922710e-05      -2.10255585e-05 
      -1.71986204e-07       1.28533080e-05      -2.21590870e-05 
      -6.51132563e-07       1.28533072e-05      -2.21590852e-05 
       1.70315035e-07       1.28533081e-05      -2.21590875e-05 
       6.49461394e-07       1.28533089e-05      -2.21590893e-05 
      -1.71986204e-07       1.28533080e-05      -2.21590870e-05 
      -6.51132563e-07       1.28533072e-05      -2.21590852e-05 
       1.70315035e-07       1.28533081e-05      -2.21590875e-05 
       6.49461394e-07       1.28533089e-05      -2.21590893e-05 
      -1.74934068e-07       1.35266883e-05      -2.33132754e-05 
      -6.62813292e-07       1.35266875e-05      -2.33132735e-05 
       1.73239996e-07       1.35266884e-05      -2.33132759e-05 
       6.61119219e-07       1.35266893e-05      -2.33132778e-05 
      -1.74934068e-07       1.35266883e-05      -2.33132754e-05 
      -6.62813292e-07       1.35266875e-05      -2.33132735e-05 
       1.73239996e-07       1.35266884e-05      -2.33132759e-05 
       6.61119219e-07       1.35266893e-05      -2.33132778e-05 
      -1.77784061e-07       1.42120493e-05      -2.44874865e-05 
      -6.74136284e-07       1.42120484e-05      -2.44874845e-05 
       1.76066771e-07       1.42120494e-05      -2.44874870e-05 
       6.72418993e-07       1.42120503e-05      -2.44874890e-05 
      -1.77784061e-07       1.42120493e-05      -2.44874865e-05 
      -6.74136284e-07       1.42120484e-05      -2.44874845e-05 
       1.76066771e-07       1.42120494e-05      -2.44874870e-05 
       6.72418993e-07       1.42120503e-05      -2.44874890e-05 
      -1.80536178e-07       1.49090289e-05      -2.56810854e-05 
      -6.85101532e-07       1.49090281e-05      -2.56810834e-05 
       1.78795366e-07       1.49090291e-05      -2.56810860e-05 
       6.83360720e-07       1.49090300e-05      -2.56810880e-05 
      -1.80536178e-07       1.49090289e-05      -2.56810854e-05 
      -6.85101532e-07       1.49090281e-05      -2.56810834e-05 
       1.78795366e-07       1.49090291e-05      -2.56810860e-05 
       6.83360720e-07       1.49090300e-05      -2.56810880e-05 
      -1.83190414e-07       1.56172655e-05      -2.68934371e-05 
      -6.95709033e-07       1.56172646e-05      -2.68934351e-05 
       1.81425788e-07       1.56172657e-05      -2.68934378e-05 
       6.93944407e-07       1.56172666e-05      -2.68934398e-05 
      -1.83190414e-07       1.56172655e-05      -2.68934371e-05 
      -6.95709033e-07       1.56172646e-05      -2.68934351e-05 