# vtk DataFile Version 2.0
./output/onsasExample_BladeCantileverBeamNoPitch_windVel3DDynamic 3D/onsasExample_BladeCantileverBeamNoPitch_windVel3DDynamic 3D_0381.vtk
ASCII
DATASET UNSTRUCTURED_GRID

POINTS 800 float
      -6.607747e-24      -7.180703e-02      -7.180703e-02 
      -2.164465e-23       7.180703e-02      -7.180703e-02 
       6.607747e-24       7.180703e-02       7.180703e-02 
       2.164465e-23      -7.180703e-02       7.180703e-02 
       2.000000e-01      -7.180702e-02      -7.180706e-02 
       2.000000e-01       7.180705e-02      -7.180706e-02 
       2.000000e-01       7.180705e-02       7.180701e-02 
       2.000000e-01      -7.180702e-02       7.180701e-02 
       2.000000e-01      -7.180702e-02      -7.180706e-02 
       2.000000e-01       7.180705e-02      -7.180706e-02 
       2.000000e-01       7.180705e-02       7.180701e-02 
       2.000000e-01      -7.180702e-02       7.180701e-02 
       4.000000e-01      -7.180698e-02      -7.180713e-02 
       3.999999e-01       7.180709e-02      -7.180713e-02 
       4.000000e-01       7.180709e-02       7.180693e-02 
       4.000001e-01      -7.180698e-02       7.180693e-02 
       4.000000e-01      -7.180698e-02      -7.180713e-02 
       3.999999e-01       7.180709e-02      -7.180713e-02 
       4.000000e-01       7.180709e-02       7.180693e-02 
       4.000001e-01      -7.180698e-02       7.180693e-02 
       6.000000e-01      -7.180691e-02      -7.180725e-02 
       5.999999e-01       7.180716e-02      -7.180725e-02 
       6.000000e-01       7.180716e-02       7.180681e-02 
       6.000001e-01      -7.180691e-02       7.180681e-02 
       6.000000e-01      -7.180691e-02      -7.180725e-02 
       5.999999e-01       7.180716e-02      -7.180725e-02 
       6.000000e-01       7.180716e-02       7.180681e-02 
       6.000001e-01      -7.180691e-02       7.180681e-02 
       8.000000e-01      -7.180682e-02      -7.180742e-02 
       7.999999e-01       7.180725e-02      -7.180742e-02 
       8.000000e-01       7.180725e-02       7.180664e-02 
       8.000001e-01      -7.180682e-02       7.180664e-02 
       8.000000e-01      -7.180682e-02      -7.180742e-02 
       7.999999e-01       7.180725e-02      -7.180742e-02 
       8.000000e-01       7.180725e-02       7.180664e-02 
       8.000001e-01      -7.180682e-02       7.180664e-02 
       1.000000e+00      -7.180670e-02      -7.180764e-02 
       9.999999e-01       7.180737e-02      -7.180764e-02 
       1.000000e+00       7.180737e-02       7.180643e-02 
       1.000000e+00      -7.180670e-02       7.180643e-02 
       1.000000e+00      -7.180670e-02      -7.180764e-02 
       9.999999e-01       7.180737e-02      -7.180764e-02 
       1.000000e+00       7.180737e-02       7.180643e-02 
       1.000000e+00      -7.180670e-02       7.180643e-02 
       1.200000e+00      -7.180655e-02      -7.180790e-02 
       1.200000e+00       7.180752e-02      -7.180790e-02 
       1.200000e+00       7.180752e-02       7.180616e-02 
       1.200000e+00      -7.180655e-02       7.180616e-02 
       1.200000e+00      -7.180655e-02      -7.180790e-02 
       1.200000e+00       7.180752e-02      -7.180790e-02 
       1.200000e+00       7.180752e-02       7.180616e-02 
       1.200000e+00      -7.180655e-02       7.180616e-02 
       1.400000e+00      -7.180638e-02      -7.180821e-02 
       1.400000e+00       7.180769e-02      -7.180821e-02 
       1.400000e+00       7.180769e-02       7.180586e-02 
       1.400000e+00      -7.180638e-02       7.180586e-02 
       1.400000e+00      -7.180638e-02      -7.180821e-02 
       1.400000e+00       7.180769e-02      -7.180821e-02 
       1.400000e+00       7.180769e-02       7.180586e-02 
       1.400000e+00      -7.180638e-02       7.180586e-02 
       1.600000e+00      -7.180618e-02      -7.180856e-02 
       1.600000e+00       7.180788e-02      -7.180856e-02 
       1.600000e+00       7.180788e-02       7.180551e-02 
       1.600000e+00      -7.180618e-02       7.180551e-02 
       1.600000e+00      -7.180618e-02      -7.180856e-02 
       1.600000e+00       7.180788e-02      -7.180856e-02 
       1.600000e+00       7.180788e-02       7.180551e-02 
       1.600000e+00      -7.180618e-02       7.180551e-02 
       1.800000e+00      -7.180597e-02      -7.180895e-02 
       1.800000e+00       7.180810e-02      -7.180895e-02 
       1.800000e+00       7.180810e-02       7.180512e-02 
       1.800000e+00      -7.180597e-02       7.180512e-02 
       1.800000e+00      -7.180597e-02      -7.180895e-02 
       1.800000e+00       7.180810e-02      -7.180895e-02 
       1.800000e+00       7.180810e-02       7.180512e-02 
       1.800000e+00      -7.180597e-02       7.180512e-02 
       2.000000e+00      -7.180572e-02      -7.180938e-02 
       2.000000e+00       7.180834e-02      -7.180938e-02 
       2.000000e+00       7.180834e-02       7.180469e-02 
       2.000000e+00      -7.180572e-02       7.180469e-02 
       2.000000e+00      -7.180572e-02      -7.180938e-02 
       2.000000e+00       7.180834e-02      -7.180938e-02 
       2.000000e+00       7.180834e-02       7.180469e-02 
       2.000000e+00      -7.180572e-02       7.180469e-02 
       2.200000e+00      -7.180546e-02      -7.180985e-02 
       2.200000e+00       7.180861e-02      -7.180985e-02 
       2.200000e+00       7.180861e-02       7.180421e-02 
       2.200000e+00      -7.180546e-02       7.180421e-02 
       2.200000e+00      -7.180546e-02      -7.180985e-02 
       2.200000e+00       7.180861e-02      -7.180985e-02 
       2.200000e+00       7.180861e-02       7.180421e-02 
       2.200000e+00      -7.180546e-02       7.180421e-02 
       2.400000e+00      -7.180517e-02      -7.181036e-02 
       2.400000e+00       7.180889e-02      -7.181036e-02 
       2.400000e+00       7.180889e-02       7.180370e-02 
       2.400000e+00      -7.180517e-02       7.180370e-02 
       2.400000e+00      -7.180517e-02      -7.181036e-02 
       2.400000e+00       7.180889e-02      -7.181036e-02 
       2.400000e+00       7.180889e-02       7.180370e-02 
       2.400000e+00      -7.180517e-02       7.180370e-02 
       2.600000e+00      -7.180487e-02      -7.181092e-02 
       2.600000e+00       7.180920e-02      -7.181092e-02 
       2.600000e+00       7.180920e-02       7.180315e-02 
       2.600000e+00      -7.180487e-02       7.180315e-02 
       2.600000e+00      -7.180487e-02      -7.181092e-02 
       2.600000e+00       7.180920e-02      -7.181092e-02 
       2.600000e+00       7.180920e-02       7.180315e-02 
       2.600000e+00      -7.180487e-02       7.180315e-02 
       2.800000e+00      -7.180454e-02      -7.181150e-02 
       2.800000e+00       7.180953e-02      -7.181150e-02 
       2.800000e+00       7.180953e-02       7.180256e-02 
       2.800000e+00      -7.180454e-02       7.180256e-02 
       2.800000e+00      -7.180454e-02      -7.181150e-02 
       2.800000e+00       7.180953e-02      -7.181150e-02 
       2.800000e+00       7.180953e-02       7.180256e-02 
       2.800000e+00      -7.180454e-02       7.180256e-02 
       3.000000e+00      -7.180419e-02      -7.181213e-02 
       3.000000e+00       7.180988e-02      -7.181213e-02 
       3.000000e+00       7.180988e-02       7.180194e-02 
       3.000000e+00      -7.180419e-02       7.180194e-02 
       3.000000e+00      -7.180419e-02      -7.181213e-02 
       3.000000e+00       7.180988e-02      -7.181213e-02 
       3.000000e+00       7.180988e-02       7.180194e-02 
       3.000000e+00      -7.180419e-02       7.180194e-02 
       3.200000e+00      -7.180382e-02      -7.181279e-02 
       3.200000e+00       7.181025e-02      -7.181279e-02 
       3.200000e+00       7.181025e-02       7.180128e-02 
       3.200000e+00      -7.180382e-02       7.180128e-02 
       3.200000e+00      -7.180382e-02      -7.181279e-02 
       3.200000e+00       7.181025e-02      -7.181279e-02 
       3.200000e+00       7.181025e-02       7.180128e-02 
       3.200000e+00      -7.180382e-02       7.180128e-02 
       3.400000e+00      -7.180343e-02      -7.181349e-02 
       3.400000e+00       7.181064e-02      -7.181349e-02 
       3.400000e+00       7.181064e-02       7.180058e-02 
       3.400000e+00      -7.180343e-02       7.180058e-02 
       3.400000e+00      -7.180343e-02      -7.181349e-02 
       3.400000e+00       7.181064e-02      -7.181349e-02 
       3.400000e+00       7.181064e-02       7.180058e-02 
       3.400000e+00      -7.180343e-02       7.180058e-02 
       3.600000e+00      -7.180302e-02      -7.181422e-02 
       3.600000e+00       7.181105e-02      -7.181422e-02 
       3.600000e+00       7.181105e-02       7.179985e-02 
       3.600000e+00      -7.180302e-02       7.179985e-02 
       3.600000e+00      -7.180302e-02      -7.181422e-02 
       3.600000e+00       7.181105e-02      -7.181422e-02 
       3.600000e+00       7.181105e-02       7.179985e-02 
       3.600000e+00      -7.180302e-02       7.179985e-02 
       3.800000e+00      -7.180259e-02      -7.181498e-02 
       3.800000e+00       7.181148e-02      -7.181498e-02 
       3.800000e+00       7.181148e-02       7.179908e-02 
       3.800000e+00      -7.180259e-02       7.179908e-02 
       3.800000e+00      -7.180259e-02      -7.181498e-02 
       3.800000e+00       7.181148e-02      -7.181498e-02 
       3.800000e+00       7.181148e-02       7.179908e-02 
       3.800000e+00      -7.180259e-02       7.179908e-02 
       4.000000e+00      -7.180214e-02      -7.181578e-02 
       4.000000e+00       7.181192e-02      -7.181578e-02 
       4.000000e+00       7.181192e-02       7.179829e-02 
       4.000000e+00      -7.180214e-02       7.179829e-02 
       4.000000e+00      -7.180214e-02      -7.181578e-02 
       4.000000e+00       7.181192e-02      -7.181578e-02 
       4.000000e+00       7.181192e-02       7.179829e-02 
       4.000000e+00      -7.180214e-02       7.179829e-02 
       4.200000e+00      -7.180168e-02      -7.181661e-02 
[...]
POINT_DATA       800 
VECTORS Displacements float
      -6.60774710e-24       0.00000000e+00       0.00000000e+00 
      -2.16446494e-23       0.00000000e+00       0.00000000e+00 
       6.60774710e-24       0.00000000e+00       0.00000000e+00 
       2.16446494e-23       0.00000000e+00       0.00000000e+00 
      -7.95246918e-09       1.38749418e-08      -2.49357048e-08 
      -2.78156323e-08       1.38749405e-08      -2.49356772e-08 
       7.87780460e-09       1.38749178e-08      -2.49356816e-08 
       2.77409677e-08       1.38749192e-08      -2.49357092e-08 
      -7.95246918e-09       1.38749418e-08      -2.49357048e-08 
      -2.78156323e-08       1.38749405e-08      -2.49356772e-08 
       7.87780460e-09       1.38749178e-08      -2.49356816e-08 
       2.77409677e-08       1.38749192e-08      -2.49357092e-08 
      -1.57413993e-08       5.51477555e-08      -9.90870029e-08 
      -5.50885987e-08       5.51477501e-08      -9.90869430e-08 
       1.55919188e-08       5.51477096e-08      -9.90869604e-08 
       5.49391181e-08       5.51477150e-08      -9.90870203e-08 
      -1.57413993e-08       5.51477555e-08      -9.90870029e-08 
      -5.50885987e-08       5.51477501e-08      -9.90869430e-08 
       1.55919188e-08       5.51477096e-08      -9.90869604e-08 
       5.49391181e-08       5.51477150e-08      -9.90870203e-08 
      -2.33667888e-08       1.23290461e-07      -2.21470207e-07 
      -8.18188974e-08       1.23290449e-07      -2.21470111e-07 
       2.31423442e-08       1.23290395e-07      -2.21470149e-07 
       8.15944527e-08       1.23290407e-07      -2.21470246e-07 
      -2.33667888e-08       1.23290461e-07      -2.21470207e-07 
      -8.18188974e-08       1.23290449e-07      -2.21470111e-07 
       2.31423442e-08       1.23290395e-07      -2.21470149e-07 
       8.15944527e-08       1.23290407e-07      -2.21470246e-07 
      -3.08286362e-08       2.17775078e-07      -3.91101632e-07 
      -1.08006527e-07       2.17775057e-07      -3.91101494e-07 
       3.05290820e-08       2.17774994e-07      -3.91101561e-07 
       1.07706973e-07       2.17775015e-07      -3.91101698e-07 
      -3.08286362e-08       2.17775078e-07      -3.91101632e-07 
      -1.08006527e-07       2.17775057e-07      -3.91101494e-07 
       3.05290820e-08       2.17774994e-07      -3.91101561e-07 
       1.07706973e-07       2.17775015e-07      -3.91101698e-07 
      -3.81269403e-08       3.38073626e-07      -6.06997588e-07 
      -1.33651486e-07       3.38073594e-07      -6.06997406e-07 
       3.77521341e-08       3.38073526e-07      -6.06997508e-07 
       1.33276680e-07       3.38073558e-07      -6.06997691e-07 
      -3.81269403e-08       3.38073626e-07      -6.06997588e-07 
      -1.33651486e-07       3.38073594e-07      -6.06997406e-07 
       3.77521341e-08       3.38073526e-07      -6.06997508e-07 
       1.33276680e-07       3.38073558e-07      -6.06997691e-07 
      -4.52616988e-08       4.83658126e-07      -8.68174391e-07 
      -1.58753773e-07       4.83658081e-07      -8.68174160e-07 
       4.48115018e-08       4.83658011e-07      -8.68174304e-07 
       1.58303576e-07       4.83658055e-07      -8.68174536e-07 
      -4.52616988e-08       4.83658126e-07      -8.68174391e-07 
      -1.58753773e-07       4.83658081e-07      -8.68174160e-07 
       4.48115018e-08       4.83658011e-07      -8.68174304e-07 
       1.58303576e-07       4.83658055e-07      -8.68174536e-07 
      -5.22329109e-08       6.54000596e-07      -1.17364835e-06 
      -1.83313387e-07       6.54000536e-07      -1.17364807e-06 
       5.17071863e-08       6.54000468e-07      -1.17364826e-06 
       1.82787663e-07       6.54000528e-07      -1.17364855e-06 
      -5.22329109e-08       6.54000596e-07      -1.17364835e-06 
      -1.83313387e-07       6.54000536e-07      -1.17364807e-06 
       5.17071863e-08       6.54000468e-07      -1.17364826e-06 
       1.82787663e-07       6.54000528e-07      -1.17364855e-06 
      -5.90405751e-08       8.48573058e-07      -1.52243579e-06 
      -2.07330326e-07       8.48572981e-07      -1.52243545e-06 
       5.84391897e-08       8.48572917e-07      -1.52243569e-06 
       2.06728941e-07       8.48572994e-07      -1.52243603e-06 
      -5.90405751e-08       8.48573058e-07      -1.52243579e-06 
      -2.07330326e-07       8.48572981e-07      -1.52243545e-06 
       5.84391897e-08       8.48572917e-07      -1.52243569e-06 
       2.06728941e-07       8.48572994e-07      -1.52243603e-06 
      -6.56846897e-08       1.06684753e-06      -1.91355301e-06 
      -2.30804588e-07       1.06684743e-06      -1.91355261e-06 
       6.50075132e-08       1.06684738e-06      -1.91355291e-06 
       2.30127411e-07       1.06684747e-06      -1.91355331e-06 
      -6.56846897e-08       1.06684753e-06      -1.91355301e-06 
      -2.30804588e-07       1.06684743e-06      -1.91355261e-06 
       6.50075132e-08       1.06684738e-06      -1.91355291e-06 
       2.30127411e-07       1.06684747e-06      -1.91355331e-06 
      -7.21652529e-08       1.30829603e-06      -2.34601632e-06 
      -2.53736172e-07       1.30829592e-06      -2.34601587e-06 
       7.14121580e-08       1.30829587e-06      -2.34601624e-06 
       2.52983077e-07       1.30829599e-06      -2.34601669e-06 
      -7.21652529e-08       1.30829603e-06      -2.34601632e-06 
      -2.53736172e-07       1.30829592e-06      -2.34601587e-06 
       7.14121580e-08       1.30829587e-06      -2.34601624e-06 
       2.52983077e-07       1.30829599e-06      -2.34601669e-06 
      -7.84773890e-08       1.57239963e-06      -2.81885961e-06 
      -2.76139859e-07       1.57239950e-06      -2.81885910e-06 
       7.76767144e-08       1.57239948e-06      -2.81885953e-06 
       2.75339183e-07       1.57239961e-06      -2.81886004e-06 
      -7.84773890e-08       1.57239963e-06      -2.81885961e-06 
      -2.76139859e-07       1.57239950e-06      -2.81885910e-06 
       7.76767144e-08       1.57239948e-06      -2.81885953e-06 
       2.75339183e-07       1.57239961e-06      -2.81886004e-06 
      -8.46455790e-08       1.85867647e-06      -3.33119000e-06 
      -2.98060376e-07       1.85867631e-06      -3.33118943e-06 
       8.37969929e-08       1.85867631e-06      -3.33118994e-06 
       2.97211790e-07       1.85867647e-06      -3.33119050e-06 
      -8.46455790e-08       1.85867647e-06      -3.33119000e-06 
      -2.98060376e-07       1.85867631e-06      -3.33118943e-06 
       8.37969929e-08       1.85867631e-06      -3.33118994e-06 
       2.97211790e-07       1.85867647e-06      -3.33119050e-06 
      -9.06698192e-08       2.16665412e-06      -3.88213369e-06 
      -3.19497722e-07       2.16665394e-06      -3.88213308e-06 
       8.97729966e-08       2.16665397e-06      -3.88213366e-06 
       3.18600899e-07       2.16665416e-06      -3.88213428e-06 
      -9.06698192e-08       2.16665412e-06      -3.88213369e-06 
      -3.19497722e-07       2.16665394e-06      -3.88213308e-06 
       8.97729966e-08       2.16665397e-06      -3.88213366e-06 
       3.18600899e-07       2.16665416e-06      -3.88213428e-06 
      -9.65501061e-08       2.49586019e-06      -4.47081691e-06 
      -3.40451892e-07       2.49585998e-06      -4.47081623e-06 
       9.56047295e-08       2.49586005e-06      -4.47081689e-06 
       3.39506515e-07       2.49586026e-06      -4.47081757e-06 
      -9.65501061e-08       2.49586019e-06      -4.47081691e-06 
      -3.40451892e-07       2.49585998e-06      -4.47081623e-06 
       9.56047295e-08       2.49586005e-06      -4.47081689e-06 
       3.39506515e-07       2.49586026e-06      -4.47081757e-06 
      -1.02286437e-07       2.84582227e-06      -5.09636584e-06 
      -3.60922884e-07       2.84582203e-06      -5.09636510e-06 
       1.01292195e-07       2.84582213e-06      -5.09636585e-06 
       3.59928642e-07       2.84582236e-06      -5.09636658e-06 
      -1.02286437e-07       2.84582227e-06      -5.09636584e-06 
      -3.60922884e-07       2.84582203e-06      -5.09636510e-06 
       1.01292195e-07       2.84582213e-06      -5.09636585e-06 
       3.59928642e-07       2.84582236e-06      -5.09636658e-06 
      -1.07878806e-07       3.21606794e-06      -5.75790670e-06 
      -3.80910692e-07       3.21606768e-06      -5.75790590e-06 
       1.06835397e-07       3.21606781e-06      -5.75790673e-06 
       3.79867283e-07       3.21606807e-06      -5.75790753e-06 
      -1.07878806e-07       3.21606794e-06      -5.75790670e-06 
      -3.80910692e-07       3.21606768e-06      -5.75790590e-06 
       1.06835397e-07       3.21606781e-06      -5.75790673e-06 
       3.79867283e-07       3.21606807e-06      -5.75790753e-06 
      -1.13327212e-07       3.60612480e-06      -6.45456569e-06 
      -4.00415315e-07       3.60612451e-06      -6.45456483e-06 
       1.12234340e-07       3.60612468e-06      -6.45456574e-06 
       3.99322442e-07       3.60612497e-06      -6.45456660e-06 
      -1.13327212e-07       3.60612480e-06      -6.45456569e-06 
      -4.00415315e-07       3.60612451e-06      -6.45456483e-06 
       1.12234340e-07       3.60612468e-06      -6.45456574e-06 
       3.99322442e-07       3.60612497e-06      -6.45456660e-06 
      -1.18631650e-07       4.01552044e-06      -7.18546901e-06 
      -4.19436747e-07       4.01552013e-06      -7.18546809e-06 
       1.17489026e-07       4.01552033e-06      -7.18546909e-06 
       4.18294122e-07       4.01552065e-06      -7.18547001e-06 
      -1.18631650e-07       4.01552044e-06      -7.18546901e-06 
      -4.19436747e-07       4.01552013e-06      -7.18546809e-06 
       1.17489026e-07       4.01552033e-06      -7.18546909e-06 
       4.18294122e-07       4.01552065e-06      -7.18547001e-06 
      -1.23792116e-07       4.44378246e-06      -7.94974287e-06 
      -4.37974984e-07       4.44378212e-06      -7.94974189e-06 
       1.22599459e-07       4.44378236e-06      -7.94974298e-06 
       4.36782328e-07       4.44378270e-06      -7.94974397e-06 
      -1.23792116e-07       4.44378246e-06      -7.94974287e-06 
      -4.37974984e-07       4.44378212e-06      -7.94974189e-06 
       1.22599459e-07       4.44378236e-06      -7.94974298e-06 
       4.36782328e-07       4.44378270e-06      -7.94974397e-06 
      -1.28808607e-07       4.89043844e-06      -8.74651348e-06 
      -4.56030026e-07       4.89043807e-06      -8.74651243e-06 
       1.27565643e-07       4.89043835e-06      -8.74651362e-06 
       4.54787062e-07       4.89043872e-06      -8.74651467e-06 
      -1.28808607e-07       4.89043844e-06      -8.74651348e-06 
      -4.56030026e-07       4.89043807e-06      -8.74651243e-06 
       1.27565643e-07       4.89043835e-06      -8.74651362e-06 
       4.54787062e-07       4.89043872e-06      -8.74651467e-06 
      -1.33681291e-07       5.35502534e-06      -9.57492586e-06 
      -4.73622146e-07       5.35502494e-06      -9.57492475e-06 
       1.32407485e-07       5.35502526e-06      -9.57492603e-06 
       4.72348340e-07       5.35502567e-06      -9.57492714e-06 
      -1.33681291e-07       5.35502534e-06      -9.57492586e-06 
      -4.73622146e-07       5.35502494e-06      -9.57492475e-06 
       1.32407485e-07       5.35502526e-06      -9.57492603e-06 
       4.72348340e-07       5.35502567e-06      -9.57492714e-06 
      -1.38429523e-07       5.83711723e-06      -1.04341983e-05 
      -4.90790578e-07       5.83711680e-06      -1.04341971e-05 
       1.37124485e-07       5.83711717e-06      -1.04341985e-05 
       4.89485540e-07       5.83711761e-06      -1.04341997e-05 
      -1.38429523e-07       5.83711723e-06      -1.04341983e-05 
      -4.90790578e-07       5.83711680e-06      -1.04341971e-05 
       1.37124485e-07       5.83711717e-06      -1.04341985e-05 
       4.89485540e-07       5.83711761e-06      -1.04341997e-05 
      -1.43053299e-07       6.33629740e-06      -1.13235669e-05 
      -5.07535315e-07       6.33629694e-06      -1.13235657e-05 
       1.41716651e-07       6.33629735e-06      -1.13235671e-05 
       5.06198667e-07       6.33629782e-06      -1.13235684e-05 
      -1.43053299e-07       6.33629740e-06      -1.13235669e-05 
      -5.07535315e-07       6.33629694e-06      -1.13235657e-05 
       1.41716651e-07       6.33629735e-06      -1.13235671e-05 
       5.06198667e-07       6.33629782e-06      -1.13235684e-05 
      -1.47552615e-07       6.85214911e-06      -1.22422678e-05 
      -5.23856356e-07       6.85214862e-06      -1.22422665e-05 
       1.46183984e-07       6.85214908e-06      -1.22422681e-05 
       5.22487724e-07       6.85214957e-06      -1.22422694e-05 
      -1.47552615e-07       6.85214911e-06      -1.22422678e-05 
      -5.23856356e-07       6.85214862e-06      -1.22422665e-05 
       1.46183984e-07       6.85214908e-06      -1.22422681e-05 
       5.22487724e-07       6.85214957e-06      -1.22422694e-05 
      -1.51927466e-07       7.38425564e-06      -1.31895371e-05 
      -5.39753693e-07       7.38425512e-06      -1.31895357e-05 
       1.50526491e-07       7.38425563e-06      -1.31895374e-05 
       5.38352717e-07       7.38425616e-06      -1.31895387e-05 
      -1.51927466e-07       7.38425564e-06      -1.31895371e-05 
      -5.39753693e-07       7.38425512e-06      -1.31895357e-05 
       1.50526491e-07       7.38425563e-06      -1.31895374e-05 
       5.38352717e-07       7.38425616e-06      -1.31895387e-05 
      -1.56177848e-07       7.93220027e-06      -1.41646108e-05 
      -5.55227323e-07       7.93219972e-06      -1.41646094e-05 
       1.54744176e-07       7.93220028e-06      -1.41646112e-05 
       5.53793652e-07       7.93220083e-06      -1.41646126e-05 
      -1.56177848e-07       7.93220027e-06      -1.41646108e-05 
      -5.55227323e-07       7.93219972e-06      -1.41646094e-05 
       1.54744176e-07       7.93220028e-06      -1.41646112e-05 
       5.53793652e-07       7.93220083e-06      -1.41646126e-05 
      -1.60303754e-07       8.49556627e-06      -1.51667252e-05 
      -5.70277241e-07       8.49556569e-06      -1.51667237e-05 
       1.58837044e-07       8.49556630e-06      -1.51667256e-05 
       5.68810531e-07       8.49556688e-06      -1.51667270e-05 
      -1.60303754e-07       8.49556627e-06      -1.51667252e-05 
      -5.70277241e-07       8.49556569e-06      -1.51667237e-05 
       1.58837044e-07       8.49556630e-06      -1.51667256e-05 
       5.68810531e-07       8.49556688e-06      -1.51667270e-05 
      -1.64305179e-07       9.07393692e-06      -1.61951163e-05 
      -5.84903440e-07       9.07393631e-06      -1.61951147e-05 
       1.62805102e-07       9.07393697e-06      -1.61951167e-05 
       5.83403363e-07       9.07393758e-06      -1.61951182e-05 
      -1.64305179e-07       9.07393692e-06      -1.61951163e-05 
      -5.84903440e-07       9.07393631e-06      -1.61951147e-05 
       1.62805102e-07       9.07393697e-06      -1.61951167e-05 
       5.83403363e-07       9.07393758e-06      -1.61951182e-05 
      -1.68182122e-07       9.66689550e-06      -1.72490201e-05 
      -5.99105920e-07       9.66689485e-06      -1.72490185e-05 
       1.66648350e-07       9.66689556e-06      -1.72490206e-05 
       5.97572148e-07       9.66689620e-06      -1.72490222e-05 
      -1.68182122e-07       9.66689550e-06      -1.72490201e-05 
      -5.99105920e-07       9.66689485e-06      -1.72490185e-05 
       1.66648350e-07       9.66689556e-06      -1.72490206e-05 
       5.97572148e-07       9.66689620e-06      -1.72490222e-05 
      -1.71934575e-07       1.02740253e-05      -1.83276729e-05 
      -6.12884672e-07       1.02740246e-05      -1.83276713e-05 
       1.70366796e-07       1.02740253e-05      -1.83276734e-05 
       6.11316894e-07       1.02740260e-05      -1.83276751e-05 
      -1.71934575e-07       1.02740253e-05      -1.83276729e-05 
      -6.12884672e-07       1.02740246e-05      -1.83276713e-05 
       1.70366796e-07       1.02740253e-05      -1.83276734e-05 
       6.11316893e-07       1.02740260e-05      -1.83276751e-05 
      -1.75565917e-07       1.08949189e-05      -1.94303295e-05 
      -6.26263145e-07       1.08949182e-05      -1.94303277e-05 
       1.73976778e-07       1.08949190e-05      -1.94303300e-05 
       6.24674006e-07       1.08949197e-05      -1.94303317e-05 
      -1.75565917e-07       1.08949189e-05      -1.94303295e-05 
      -6.26263145e-07       1.08949182e-05      -1.94303277e-05 
       1.73976778e-07       1.08949190e-05      -1.94303300e-05 
       6.24674006e-07       1.08949197e-05      -1.94303317e-05 
      -1.79091681e-07       1.15292058e-05      -2.05563165e-05 
      -6.39276512e-07       1.15292051e-05      -2.05563147e-05 
       1.77480810e-07       1.15292060e-05      -2.05563170e-05 
       6.37665641e-07       1.15292067e-05      -2.05563188e-05 
      -1.79091681e-07       1.15292058e-05      -2.05563165e-05 
      -6.39276512e-07       1.15292051e-05      -2.05563147e-05 
       1.77480810e-07       1.15292060e-05      -2.05563170e-05 
       6.37665641e-07       1.15292067e-05      -2.05563188e-05 
      -1.82511859e-07       1.21765247e-05      -2.17049779e-05 
      -6.51924766e-07       1.21765240e-05      -2.17049761e-05 
       1.80878899e-07       1.21765249e-05      -2.17049785e-05 
       6.50291805e-07       1.21765256e-05      -2.17049804e-05 
      -1.82511859e-07       1.21765247e-05      -2.17049779e-05 
      -6.51924766e-07       1.21765240e-05      -2.17049761e-05 
       1.80878899e-07       1.21765249e-05      -2.17049785e-05 
       6.50291805e-07       1.21765256e-05      -2.17049804e-05 
      -1.85826448e-07       1.28365141e-05      -2.28756579e-05 
      -6.64207905e-07       1.28365133e-05      -2.28756560e-05 
       1.84171046e-07       1.28365143e-05      -2.28756585e-05 
       6.62552503e-07       1.28365151e-05      -2.28756604e-05 
      -1.85826448e-07       1.28365141e-05      -2.28756579e-05 
      -6.64207905e-07       1.28365133e-05      -2.28756560e-05 
       1.84171046e-07       1.28365143e-05      -2.28756585e-05 
       6.62552503e-07       1.28365151e-05      -2.28756604e-05 
      -1.89035443e-07       1.35088126e-05      -2.40677003e-05 
      -6.76125921e-07       1.35088118e-05      -2.40676984e-05 
       1.87357260e-07       1.35088128e-05      -2.40677010e-05 
       6.74447739e-07       1.35088136e-05      -2.40677029e-05 
      -1.89035443e-07       1.35088126e-05      -2.40677003e-05 
      -6.76125921e-07       1.35088118e-05      -2.40676984e-05 
       1.87357260e-07       1.35088128e-05      -2.40677010e-05 
       6.74447739e-07       1.35088136e-05      -2.40677029e-05 
      -1.92138839e-07       1.41930587e-05      -2.52804493e-05 
      -6.87678811e-07       1.41930579e-05      -2.52804473e-05 
       1.90437546e-07       1.41930589e-05      -2.52804500e-05 
       6.85977517e-07       1.41930598e-05      -2.52804519e-05 
      -1.92138839e-07       1.41930587e-05      -2.52804493e-05 
      -6.87678811e-07       1.41930579e-05      -2.52804473e-05 
       1.90437546e-07       1.41930589e-05      -2.52804500e-05 
       6.85977517e-07       1.41930598e-05      -2.52804519e-05 
      -1.95136630e-07       1.48888911e-05      -2.65132486e-05 
      -6.98866569e-07       1.48888902e-05      -2.65132466e-05 
       1.93411907e-07       1.48888913e-05      -2.65132494e-05 
       6.97141846e-07       1.48888922e-05      -2.65132514e-05 
      -1.95136630e-07       1.48888911e-05      -2.65132486e-05 
      -6.98866569e-07       1.48888902e-05      -2.65132466e-05 
       1.93411907e-07       1.48888913e-05      -2.65132494e-05 
       6.97141846e-07       1.48888922e-05      -2.65132514e-05 
      -1.98028809e-07       1.55959483e-05      -2.77654425e-05 
      -7.09689188e-07       1.55959474e-05      -2.77654404e-05 
       1.96280350e-07       1.55959485e-05      -2.77654433e-05 
       7.07940728e-07       1.55959494e-05      -2.77654453e-05 
      -1.98028809e-07       1.55959483e-05      -2.77654425e-05 
      -7.09689188e-07       1.55959474e-05      -2.77654404e-05 