# vtk DataFile Version 2.0
./output/onsasExample_BladeCantileverBeamNoPitch_windVel3DDynamic 3D/onsasExample_BladeCantileverBeamNoPitch_windVel3DDynamic 3D_0383.vtk
ASCII
DATASET UNSTRUCTURED_GRID

POINTS 800 float
       2.718051e-23      -7.180703e-02      -7.180703e-02 
       2.526278e-23       7.180703e-02      -7.180703e-02 
      -2.718051e-23       7.180703e-02       7.180703e-02 
      -2.526278e-23      -7.180703e-02       7.180703e-02 
       2.000000e-01      -7.180702e-02      -7.180706e-02 
       2.000000e-01       7.180705e-02      -7.180706e-02 
       2.000000e-01       7.180705e-02       7.180701e-02 
       2.000000e-01      -7.180702e-02       7.180701e-02 
       2.000000e-01      -7.180702e-02      -7.180706e-02 
       2.000000e-01       7.180705e-02      -7.180706e-02 
       2.000000e-01       7.180705e-02       7.180701e-02 
       2.000000e-01      -7.180702e-02       7.180701e-02 
       4.000000e-01      -7.180698e-02      -7.180713e-02 
       3.999999e-01       7.180709e-02      -7.180713e-02 
       4.000000e-01       7.180709e-02       7.180693e-02 
       4.000001e-01      -7.180698e-02       7.180693e-02 
       4.000000e-01      -7.180698e-02      -7.180713e-02 
       3.999999e-01       7.180709e-02      -7.180713e-02 
       4.000000e-01       7.180709e-02       7.180693e-02 
       4.000001e-01      -7.180698e-02       7.180693e-02 
       6.000000e-01      -7.180691e-02      -7.180725e-02 
       5.999999e-01       7.180716e-02      -7.180725e-02 
       6.000000e-01       7.180716e-02       7.180681e-02 
       6.000001e-01      -7.180691e-02       7.180681e-02 
       6.000000e-01      -7.180691e-02      -7.180725e-02 
       5.999999e-01       7.180716e-02      -7.180725e-02 
       6.000000e-01       7.180716e-02       7.180681e-02 
       6.000001e-01      -7.180691e-02       7.180681e-02 
       8.000000e-01      -7.180682e-02      -7.180742e-02 
       7.999999e-01       7.180725e-02      -7.180742e-02 
       8.000000e-01       7.180725e-02       7.180665e-02 
       8.000001e-01      -7.180682e-02       7.180665e-02 
       8.000000e-01      -7.180682e-02      -7.180742e-02 
       7.999999e-01       7.180725e-02      -7.180742e-02 
       8.000000e-01       7.180725e-02       7.180665e-02 
       8.000001e-01      -7.180682e-02       7.180665e-02 
       1.000000e+00      -7.180670e-02      -7.180763e-02 
       9.999999e-01       7.180737e-02      -7.180763e-02 
       1.000000e+00       7.180737e-02       7.180643e-02 
       1.000000e+00      -7.180670e-02       7.180643e-02 
       1.000000e+00      -7.180670e-02      -7.180763e-02 
       9.999999e-01       7.180737e-02      -7.180763e-02 
       1.000000e+00       7.180737e-02       7.180643e-02 
       1.000000e+00      -7.180670e-02       7.180643e-02 
       1.200000e+00      -7.180655e-02      -7.180789e-02 
       1.200000e+00       7.180752e-02      -7.180789e-02 
       1.200000e+00       7.180752e-02       7.180617e-02 
       1.200000e+00      -7.180655e-02       7.180617e-02 
       1.200000e+00      -7.180655e-02      -7.180789e-02 
       1.200000e+00       7.180752e-02      -7.180789e-02 
       1.200000e+00       7.180752e-02       7.180617e-02 
       1.200000e+00      -7.180655e-02       7.180617e-02 
       1.400000e+00      -7.180638e-02      -7.180820e-02 
       1.400000e+00       7.180769e-02      -7.180820e-02 
       1.400000e+00       7.180769e-02       7.180587e-02 
       1.400000e+00      -7.180638e-02       7.180587e-02 
       1.400000e+00      -7.180638e-02      -7.180820e-02 
       1.400000e+00       7.180769e-02      -7.180820e-02 
       1.400000e+00       7.180769e-02       7.180587e-02 
       1.400000e+00      -7.180638e-02       7.180587e-02 
       1.600000e+00      -7.180618e-02      -7.180854e-02 
       1.600000e+00       7.180788e-02      -7.180854e-02 
       1.600000e+00       7.180788e-02       7.180553e-02 
       1.600000e+00      -7.180618e-02       7.180553e-02 
       1.600000e+00      -7.180618e-02      -7.180854e-02 
       1.600000e+00       7.180788e-02      -7.180854e-02 
       1.600000e+00       7.180788e-02       7.180553e-02 
       1.600000e+00      -7.180618e-02       7.180553e-02 
       1.800000e+00      -7.180597e-02      -7.180893e-02 
       1.800000e+00       7.180810e-02      -7.180893e-02 
       1.800000e+00       7.180810e-02       7.180514e-02 
       1.800000e+00      -7.180597e-02       7.180514e-02 
       1.800000e+00      -7.180597e-02      -7.180893e-02 
       1.800000e+00       7.180810e-02      -7.180893e-02 
       1.800000e+00       7.180810e-02       7.180514e-02 
       1.800000e+00      -7.180597e-02       7.180514e-02 
       2.000000e+00      -7.180573e-02      -7.180936e-02 
       2.000000e+00       7.180834e-02      -7.180936e-02 
       2.000000e+00       7.180834e-02       7.180471e-02 
       2.000000e+00      -7.180573e-02       7.180471e-02 
       2.000000e+00      -7.180573e-02      -7.180936e-02 
       2.000000e+00       7.180834e-02      -7.180936e-02 
       2.000000e+00       7.180834e-02       7.180471e-02 
       2.000000e+00      -7.180573e-02       7.180471e-02 
       2.200000e+00      -7.180546e-02      -7.180982e-02 
       2.200000e+00       7.180860e-02      -7.180982e-02 
       2.200000e+00       7.180860e-02       7.180424e-02 
       2.200000e+00      -7.180546e-02       7.180424e-02 
       2.200000e+00      -7.180546e-02      -7.180982e-02 
       2.200000e+00       7.180860e-02      -7.180982e-02 
       2.200000e+00       7.180860e-02       7.180424e-02 
       2.200000e+00      -7.180546e-02       7.180424e-02 
       2.400000e+00      -7.180518e-02      -7.181033e-02 
       2.400000e+00       7.180889e-02      -7.181033e-02 
       2.400000e+00       7.180889e-02       7.180373e-02 
       2.400000e+00      -7.180518e-02       7.180373e-02 
       2.400000e+00      -7.180518e-02      -7.181033e-02 
       2.400000e+00       7.180889e-02      -7.181033e-02 
       2.400000e+00       7.180889e-02       7.180373e-02 
       2.400000e+00      -7.180518e-02       7.180373e-02 
       2.600000e+00      -7.180487e-02      -7.181088e-02 
       2.600000e+00       7.180920e-02      -7.181088e-02 
       2.600000e+00       7.180920e-02       7.180319e-02 
       2.600000e+00      -7.180487e-02       7.180319e-02 
       2.600000e+00      -7.180487e-02      -7.181088e-02 
       2.600000e+00       7.180920e-02      -7.181088e-02 
       2.600000e+00       7.180920e-02       7.180319e-02 
       2.600000e+00      -7.180487e-02       7.180319e-02 
       2.800000e+00      -7.180454e-02      -7.181146e-02 
       2.800000e+00       7.180953e-02      -7.181146e-02 
       2.800000e+00       7.180953e-02       7.180261e-02 
       2.800000e+00      -7.180454e-02       7.180261e-02 
       2.800000e+00      -7.180454e-02      -7.181146e-02 
       2.800000e+00       7.180953e-02      -7.181146e-02 
       2.800000e+00       7.180953e-02       7.180261e-02 
       2.800000e+00      -7.180454e-02       7.180261e-02 
       3.000000e+00      -7.180419e-02      -7.181208e-02 
       3.000000e+00       7.180988e-02      -7.181208e-02 
       3.000000e+00       7.180988e-02       7.180199e-02 
       3.000000e+00      -7.180419e-02       7.180199e-02 
       3.000000e+00      -7.180419e-02      -7.181208e-02 
       3.000000e+00       7.180988e-02      -7.181208e-02 
       3.000000e+00       7.180988e-02       7.180199e-02 
       3.000000e+00      -7.180419e-02       7.180199e-02 
       3.200000e+00      -7.180382e-02      -7.181273e-02 
       3.200000e+00       7.181025e-02      -7.181273e-02 
       3.200000e+00       7.181025e-02       7.180133e-02 
       3.200000e+00      -7.180382e-02       7.180133e-02 
       3.200000e+00      -7.180382e-02      -7.181273e-02 
       3.200000e+00       7.181025e-02      -7.181273e-02 
       3.200000e+00       7.181025e-02       7.180133e-02 
       3.200000e+00      -7.180382e-02       7.180133e-02 
       3.400000e+00      -7.180343e-02      -7.181342e-02 
       3.400000e+00       7.181064e-02      -7.181342e-02 
       3.400000e+00       7.181064e-02       7.180064e-02 
       3.400000e+00      -7.180343e-02       7.180064e-02 
       3.400000e+00      -7.180343e-02      -7.181342e-02 
       3.400000e+00       7.181064e-02      -7.181342e-02 
       3.400000e+00       7.181064e-02       7.180064e-02 
       3.400000e+00      -7.180343e-02       7.180064e-02 
       3.600000e+00      -7.180302e-02      -7.181415e-02 
       3.600000e+00       7.181105e-02      -7.181415e-02 
       3.600000e+00       7.181105e-02       7.179992e-02 
       3.600000e+00      -7.180302e-02       7.179992e-02 
       3.600000e+00      -7.180302e-02      -7.181415e-02 
       3.600000e+00       7.181105e-02      -7.181415e-02 
       3.600000e+00       7.181105e-02       7.179992e-02 
       3.600000e+00      -7.180302e-02       7.179992e-02 
       3.800000e+00      -7.180259e-02      -7.181490e-02 
       3.800000e+00       7.181147e-02      -7.181490e-02 
       3.800000e+00       7.181147e-02       7.179916e-02 
       3.800000e+00      -7.180259e-02       7.179916e-02 
       3.800000e+00      -7.180259e-02      -7.181490e-02 
       3.800000e+00       7.181147e-02      -7.181490e-02 
       3.800000e+00       7.181147e-02       7.179916e-02 
       3.800000e+00      -7.180259e-02       7.179916e-02 
       4.000000e+00      -7.180214e-02      -7.181569e-02 
       4.000000e+00       7.181192e-02      -7.181569e-02 
       4.000000e+00       7.181192e-02       7.179837e-02 
       4.000000e+00      -7.180214e-02       7.179837e-02 
       4.000000e+00      -7.180214e-02      -7.181569e-02 
       4.000000e+00       7.181192e-02      -7.181569e-02 
       4.000000e+00       7.181192e-02       7.179837e-02 
       4.000000e+00      -7.180214e-02       7.179837e-02 
       4.200000e+00      -7.180168e-02      -7.181651e-02 
[...]
POINT_DATA       800 
VECTORS Displacements float
       2.71805106e-23       0.00000000e+00       0.00000000e+00 
       2.52627758e-23       1.38777878e-17       0.00000000e+00 
      -2.71805106e-23       0.00000000e+00       0.00000000e+00 
      -2.52627758e-23      -1.38777878e-17       0.00000000e+00 
      -7.78699966e-09       1.38696922e-08      -2.47001146e-08 
      -2.76426270e-08       1.38696909e-08      -2.47000875e-08 
       7.71301337e-09       1.38696687e-08      -2.47000919e-08 
       2.75686408e-08       1.38696701e-08      -2.47001190e-08 
      -7.78699966e-09       1.38696922e-08      -2.47001146e-08 
      -2.76426270e-08       1.38696909e-08      -2.47000875e-08 
       7.71301337e-09       1.38696687e-08      -2.47000919e-08 
       2.75686408e-08       1.38696701e-08      -2.47001190e-08 
      -1.54120814e-08       5.51267747e-08      -9.81476719e-08 
      -5.47442275e-08       5.51267693e-08      -9.81476131e-08 
       1.52639598e-08       5.51267297e-08      -9.81476302e-08 
       5.45961059e-08       5.51267351e-08      -9.81476890e-08 
      -1.54120814e-08       5.51267747e-08      -9.81476719e-08 
      -5.47442275e-08       5.51267693e-08      -9.81476131e-08 
       1.52639598e-08       5.51267297e-08      -9.81476302e-08 
       5.45961059e-08       5.51267351e-08      -9.81476890e-08 
      -2.28752436e-08       1.23243293e-07      -2.19363529e-07 
      -8.13047999e-08       1.23243281e-07      -2.19363434e-07 
       2.26528407e-08       1.23243228e-07      -2.19363472e-07 
       8.10823970e-08       1.23243240e-07      -2.19363567e-07 
      -2.28752436e-08       1.23243293e-07      -2.19363529e-07 
      -8.13047999e-08       1.23243281e-07      -2.19363434e-07 
       2.26528407e-08       1.23243228e-07      -2.19363472e-07 
       8.10823970e-08       1.23243240e-07      -2.19363567e-07 
      -3.01764851e-08       2.17691291e-07      -3.87368543e-07 
      -1.07324343e-07       2.17691271e-07      -3.87368408e-07 
       2.98796575e-08       2.17691209e-07      -3.87368473e-07 
       1.07027515e-07       2.17691230e-07      -3.87368609e-07 
      -3.01764851e-08       2.17691291e-07      -3.87368543e-07 
      -1.07324343e-07       2.17691271e-07      -3.87368408e-07 
       2.98796575e-08       2.17691209e-07      -3.87368473e-07 
       1.07027515e-07       2.17691230e-07      -3.87368609e-07 
      -3.73158041e-08       3.37942816e-07      -6.01183571e-07 
      -1.32802855e-07       3.37942785e-07      -6.01183391e-07 
       3.69444118e-08       3.37942718e-07      -6.01183492e-07 
       1.32431462e-07       3.37942750e-07      -6.01183671e-07 
      -3.73158041e-08       3.37942816e-07      -6.01183571e-07 
      -1.32802855e-07       3.37942785e-07      -6.01183391e-07 
       3.69444118e-08       3.37942718e-07      -6.01183492e-07 
       1.32431462e-07       3.37942750e-07      -6.01183671e-07 
      -4.42931991e-08       4.83469913e-07      -8.59829470e-07 
      -1.57740334e-07       4.83469868e-07      -8.59829243e-07 
       4.38471053e-08       4.83469800e-07      -8.59829384e-07 
       1.57294240e-07       4.83469845e-07      -8.59829611e-07 
      -4.42931991e-08       4.83469913e-07      -8.59829470e-07 
      -1.57740334e-07       4.83469868e-07      -8.59829243e-07 
       4.38471053e-08       4.83469800e-07      -8.59829384e-07 
       1.57294240e-07       4.83469845e-07      -8.59829611e-07 
      -5.11086689e-08       6.53744626e-07      -1.16232710e-06 
      -1.82136779e-07       6.53744566e-07      -1.16232682e-06 
       5.05877387e-08       6.53744500e-07      -1.16232701e-06 
       1.81615849e-07       6.53744560e-07      -1.16232729e-06 
      -5.11086689e-08       6.53744626e-07      -1.16232710e-06 
      -1.82136779e-07       6.53744566e-07      -1.16232682e-06 
       5.05877387e-08       6.53744500e-07      -1.16232701e-06 
       1.81615849e-07       6.53744560e-07      -1.16232729e-06 
      -5.77622121e-08       8.48239002e-07      -1.50769731e-06 
      -2.05992189e-07       8.48238925e-07      -1.50769698e-06 
       5.71663141e-08       8.48238864e-07      -1.50769722e-06 
       2.05396291e-07       8.48238940e-07      -1.50769755e-06 
      -5.77622121e-08       8.48239002e-07      -1.50769731e-06 
      -2.05992189e-07       8.48238925e-07      -1.50769698e-06 
       5.71663141e-08       8.48238864e-07      -1.50769722e-06 
       2.05396291e-07       8.48238940e-07      -1.50769755e-06 
      -6.42538267e-08       1.06642508e-06      -1.89496096e-06 
      -2.29306562e-07       1.06642499e-06      -1.89496057e-06 
       6.35828330e-08       1.06642494e-06      -1.89496087e-06 
       2.28635569e-07       1.06642503e-06      -1.89496126e-06 
      -6.42538267e-08       1.06642508e-06      -1.89496096e-06 
      -2.29306562e-07       1.06642499e-06      -1.89496057e-06 
       6.35828330e-08       1.06642494e-06      -1.89496087e-06 
       2.28635569e-07       1.06642503e-06      -1.89496126e-06 
      -7.05835115e-08       1.30777492e-06      -2.32313892e-06 
      -2.52079897e-07       1.30777481e-06      -2.32313847e-06 
       6.98372968e-08       1.30777476e-06      -2.32313883e-06 
       2.51333682e-07       1.30777488e-06      -2.32313928e-06 
      -7.05835115e-08       1.30777492e-06      -2.32313892e-06 
      -2.52079897e-07       1.30777481e-06      -2.32313847e-06 
       6.98372968e-08       1.30777476e-06      -2.32313883e-06 
       2.51333682e-07       1.30777488e-06      -2.32313928e-06 
      -7.67465052e-08       1.57176961e-06      -2.79126966e-06 
      -2.74327098e-07       1.57176947e-06      -2.79126916e-06 
       7.59533214e-08       1.57176945e-06      -2.79126958e-06 
       2.73533915e-07       1.57176959e-06      -2.79127008e-06 
      -7.67465052e-08       1.57176961e-06      -2.79126966e-06 
      -2.74327098e-07       1.57176947e-06      -2.79126916e-06 
       7.59533214e-08       1.57176945e-06      -2.79126958e-06 
       2.73533915e-07       1.57176959e-06      -2.79127008e-06 
      -8.27672868e-08       1.85792733e-06      -3.29846518e-06 
      -2.96092902e-07       1.85792717e-06      -3.29846462e-06 
       8.19268080e-08       1.85792718e-06      -3.29846512e-06 
       2.95252423e-07       1.85792734e-06      -3.29846567e-06 
      -8.27672868e-08       1.85792733e-06      -3.29846518e-06 
      -2.96092902e-07       1.85792717e-06      -3.29846462e-06 
       8.19268080e-08       1.85792718e-06      -3.29846512e-06 
       2.95252423e-07       1.85792734e-06      -3.29846567e-06 
      -8.86458533e-08       2.16577572e-06      -3.84385656e-06 
      -3.17377305e-07       2.16577554e-06      -3.84385596e-06 
       8.77577593e-08       2.16577558e-06      -3.84385653e-06 
       3.16489211e-07       2.16577576e-06      -3.84385714e-06 
      -8.86458533e-08       2.16577572e-06      -3.84385656e-06 
      -3.17377305e-07       2.16577554e-06      -3.84385596e-06 
       8.77577593e-08       2.16577558e-06      -3.84385653e-06 
       3.16489211e-07       2.16577576e-06      -3.84385714e-06 
      -9.43822007e-08       2.49484243e-06      -4.42657492e-06 
      -3.38180302e-07       2.49484222e-06      -4.42657425e-06 
       9.34461797e-08       2.49484229e-06      -4.42657490e-06 
       3.37244281e-07       2.49484250e-06      -4.42657557e-06 
      -9.43822007e-08       2.49484243e-06      -4.42657492e-06 
      -3.38180302e-07       2.49484222e-06      -4.42657425e-06 
       9.34461797e-08       2.49484229e-06      -4.42657490e-06 
       3.37244281e-07       2.49484250e-06      -4.42657557e-06 
      -9.99763259e-08       2.84465509e-06      -5.04575133e-06 
      -3.58501892e-07       2.84465486e-06      -5.04575060e-06 
       9.89920714e-08       2.84465496e-06      -5.04575133e-06 
       3.57517637e-07       2.84465519e-06      -5.04575206e-06 
      -9.99763259e-08       2.84465509e-06      -5.04575133e-06 
      -3.58501892e-07       2.84465486e-06      -5.04575060e-06 
       9.89920714e-08       2.84465496e-06      -5.04575133e-06 
       3.57517637e-07       2.84465519e-06      -5.04575206e-06 
      -1.05428225e-07       3.21474136e-06      -5.70051689e-06 
      -3.78342069e-07       3.21474110e-06      -5.70051610e-06 
       1.04395439e-07       3.21474124e-06      -5.70051691e-06 
       3.77309283e-07       3.21474150e-06      -5.70051770e-06 
      -1.05428225e-07       3.21474136e-06      -5.70051689e-06 
      -3.78342069e-07       3.21474110e-06      -5.70051610e-06 
       1.04395439e-07       3.21474124e-06      -5.70051691e-06 
       3.77309283e-07       3.21474150e-06      -5.70051770e-06 
      -1.10737894e-07       3.60462887e-06      -6.39000269e-06 
      -3.97700831e-07       3.60462859e-06      -6.39000185e-06 
       1.09656287e-07       3.60462875e-06      -6.39000274e-06 
       3.96619224e-07       3.60462904e-06      -6.39000359e-06 
      -1.10737894e-07       3.60462887e-06      -6.39000269e-06 
      -3.97700831e-07       3.60462859e-06      -6.39000185e-06 
       1.09656287e-07       3.60462875e-06      -6.39000274e-06 
       3.96619224e-07       3.60462904e-06      -6.39000359e-06 
      -1.15905329e-07       4.01384527e-06      -7.11333983e-06 
      -4.16578173e-07       4.01384495e-06      -7.11333892e-06 
       1.14774617e-07       4.01384516e-06      -7.11333991e-06 
       4.15447461e-07       4.01384547e-06      -7.11334081e-06 
      -1.15905329e-07       4.01384527e-06      -7.11333983e-06 
      -4.16578173e-07       4.01384495e-06      -7.11333892e-06 
       1.14774617e-07       4.01384516e-06      -7.11333991e-06 
       4.15447461e-07       4.01384547e-06      -7.11334081e-06 
      -1.20930528e-07       4.44191819e-06      -7.86965940e-06 
      -4.34974092e-07       4.44191785e-06      -7.86965843e-06 
       1.19750434e-07       4.44191809e-06      -7.86965950e-06 
       4.33793999e-07       4.44191843e-06      -7.86966047e-06 
      -1.20930528e-07       4.44191819e-06      -7.86965940e-06 
      -4.34974092e-07       4.44191785e-06      -7.86965843e-06 
       1.19750434e-07       4.44191809e-06      -7.86965950e-06 
       4.33793999e-07       4.44191843e-06      -7.86966047e-06 
      -1.25813487e-07       4.88837529e-06      -8.65809250e-06 
      -4.52888586e-07       4.88837492e-06      -8.65809146e-06 
       1.24583741e-07       4.88837520e-06      -8.65809262e-06 
       4.51658841e-07       4.88837557e-06      -8.65809366e-06 
      -1.25813486e-07       4.88837529e-06      -8.65809250e-06 
      -4.52888586e-07       4.88837492e-06      -8.65809146e-06 
       1.24583742e-07       4.88837520e-06      -8.65809262e-06 
       4.51658841e-07       4.88837557e-06      -8.65809366e-06 
      -1.30554477e-07       5.35275356e-06      -9.47778910e-06 
      -4.70342044e-07       5.35275316e-06      -9.47778800e-06 
       1.29294468e-07       5.35275348e-06      -9.47778926e-06 
       4.69082036e-07       5.35275389e-06      -9.47779035e-06 
      -1.30554477e-07       5.35275356e-06      -9.47778910e-06 
      -4.70342044e-07       5.35275316e-06      -9.47778800e-06 
       1.29294468e-07       5.35275348e-06      -9.47778926e-06 
       4.69082036e-07       5.35275389e-06      -9.47779035e-06 
      -1.35172837e-07       5.83462716e-06      -1.03279726e-05 
      -4.87373686e-07       5.83462673e-06      -1.03279715e-05 
       1.33882184e-07       5.83462710e-06      -1.03279728e-05 
       4.86083032e-07       5.83462753e-06      -1.03279740e-05 
      -1.35172837e-07       5.83462716e-06      -1.03279726e-05 
      -4.87373686e-07       5.83462673e-06      -1.03279715e-05 
       1.33882184e-07       5.83462710e-06      -1.03279728e-05 
       4.86083032e-07       5.83462753e-06      -1.03279740e-05 
      -1.39668565e-07       6.33357943e-06      -1.12078844e-05 
      -5.03983508e-07       6.33357897e-06      -1.12078832e-05 
       1.38346892e-07       6.33357939e-06      -1.12078846e-05 
       5.02661836e-07       6.33357985e-06      -1.12078858e-05 
      -1.39668565e-07       6.33357943e-06      -1.12078844e-05 
      -5.03983508e-07       6.33357897e-06      -1.12078832e-05 
       1.38346892e-07       6.33357939e-06      -1.12078846e-05 
       5.02661836e-07       6.33357985e-06      -1.12078858e-05 
      -1.44041653e-07       6.84919372e-06      -1.21167656e-05 
      -5.20171506e-07       6.84919323e-06      -1.21167644e-05 
       1.42688597e-07       6.84919370e-06      -1.21167659e-05 
       5.18818450e-07       6.84919419e-06      -1.21167672e-05 
      -1.44041653e-07       6.84919372e-06      -1.21167656e-05 
      -5.20171506e-07       6.84919323e-06      -1.21167644e-05 
       1.42688597e-07       6.84919370e-06      -1.21167659e-05 
       5.18818450e-07       6.84919419e-06      -1.21167672e-05 
      -1.48292099e-07       7.38105338e-06      -1.30538576e-05 
      -5.35937674e-07       7.38105286e-06      -1.30538563e-05 
       1.46907304e-07       7.38105337e-06      -1.30538579e-05 
       5.34552879e-07       7.38105389e-06      -1.30538592e-05 
      -1.48292099e-07       7.38105338e-06      -1.30538576e-05 
      -5.35937674e-07       7.38105286e-06      -1.30538563e-05 
       1.46907304e-07       7.38105337e-06      -1.30538579e-05 
       5.34552879e-07       7.38105389e-06      -1.30538592e-05 
      -1.52419898e-07       7.92874175e-06      -1.40184015e-05 
      -5.51282008e-07       7.92874119e-06      -1.40184001e-05 
       1.51003019e-07       7.92874176e-06      -1.40184019e-05 
       5.49865129e-07       7.92874231e-06      -1.40184032e-05 
      -1.52419898e-07       7.92874175e-06      -1.40184015e-05 
      -5.51282008e-07       7.92874119e-06      -1.40184001e-05 
       1.51003019e-07       7.92874176e-06      -1.40184019e-05 
       5.49865129e-07       7.92874231e-06      -1.40184032e-05 
      -1.56425044e-07       8.49184218e-06      -1.50096387e-05 
      -5.66204503e-07       8.49184159e-06      -1.50096373e-05 
       1.54975744e-07       8.49184220e-06      -1.50096391e-05 
       5.64755203e-07       8.49184278e-06      -1.50096405e-05 
      -1.56425044e-07       8.49184218e-06      -1.50096387e-05 
      -5.66204503e-07       8.49184159e-06      -1.50096373e-05 
       1.54975744e-07       8.49184220e-06      -1.50096391e-05 
       5.64755203e-07       8.49184278e-06      -1.50096405e-05 
      -1.60307532e-07       9.06993801e-06      -1.60268105e-05 
      -5.80705152e-07       9.06993739e-06      -1.60268089e-05 
       1.58825488e-07       9.06993805e-06      -1.60268108e-05 
       5.79223109e-07       9.06993867e-06      -1.60268124e-05 
      -1.60307532e-07       9.06993801e-06      -1.60268105e-05 
      -5.80705152e-07       9.06993739e-06      -1.60268089e-05 
       1.58825488e-07       9.06993805e-06      -1.60268108e-05 
       5.79223109e-07       9.06993867e-06      -1.60268124e-05 
      -1.64067358e-07       9.66261260e-06      -1.70691580e-05 
      -5.94783955e-07       9.66261195e-06      -1.70691564e-05 
       1.62552250e-07       9.66261265e-06      -1.70691584e-05 
       5.93268847e-07       9.66261330e-06      -1.70691600e-05 
      -1.64067358e-07       9.66261260e-06      -1.70691580e-05 
      -5.94783955e-07       9.66261195e-06      -1.70691564e-05 
       1.62552250e-07       9.66261265e-06      -1.70691584e-05 
       5.93268847e-07       9.66261330e-06      -1.70691600e-05 
      -1.67704518e-07       1.02694493e-05      -1.81359225e-05 
      -6.08440905e-07       1.02694486e-05      -1.81359209e-05 
       1.66156039e-07       1.02694494e-05      -1.81359230e-05 
       6.06892426e-07       1.02694500e-05      -1.81359246e-05 
      -1.67704518e-07       1.02694493e-05      -1.81359225e-05 
      -6.08440905e-07       1.02694486e-05      -1.81359209e-05 
       1.66156039e-07       1.02694494e-05      -1.81359230e-05 
       6.06892426e-07       1.02694500e-05      -1.81359246e-05 
      -1.71222479e-07       1.08900408e-05      -1.92263641e-05 
      -6.21699545e-07       1.08900401e-05      -1.92263624e-05 
       1.69653205e-07       1.08900409e-05      -1.92263646e-05 
       6.20130271e-07       1.08900416e-05      -1.92263663e-05 
      -1.71222479e-07       1.08900408e-05      -1.92263641e-05 
      -6.21699545e-07       1.08900401e-05      -1.92263624e-05 
       1.69653205e-07       1.08900409e-05      -1.92263646e-05 
       6.20130271e-07       1.08900416e-05      -1.92263663e-05 
      -1.74636739e-07       1.15240167e-05      -2.03398149e-05 
      -6.34595019e-07       1.15240159e-05      -2.03398131e-05 
       1.73046305e-07       1.15240168e-05      -2.03398154e-05 
       6.33004587e-07       1.15240175e-05      -2.03398171e-05 
      -1.74636739e-07       1.15240167e-05      -2.03398149e-05 
      -6.34595019e-07       1.15240159e-05      -2.03398131e-05 
       1.73046305e-07       1.15240168e-05      -2.03398154e-05 
       6.33004587e-07       1.15240175e-05      -2.03398171e-05 
      -1.77947291e-07       1.21710157e-05      -2.14756241e-05 
      -6.47127322e-07       1.21710149e-05      -2.14756223e-05 
       1.76335347e-07       1.21710158e-05      -2.14756247e-05 
       6.45515378e-07       1.21710166e-05      -2.14756265e-05 
      -1.77947291e-07       1.21710157e-05      -2.14756241e-05 
      -6.47127322e-07       1.21710149e-05      -2.14756223e-05 
       1.76335347e-07       1.21710158e-05      -2.14756247e-05 
       6.45515378e-07       1.21710166e-05      -2.14756265e-05 
      -1.81154132e-07       1.28306764e-05      -2.26331412e-05 
      -6.59296449e-07       1.28306756e-05      -2.26331393e-05 
       1.79520334e-07       1.28306765e-05      -2.26331418e-05 
       6.57662650e-07       1.28306773e-05      -2.26331436e-05 
      -1.81154132e-07       1.28306764e-05      -2.26331412e-05 
      -6.59296449e-07       1.28306756e-05      -2.26331393e-05 
       1.79520334e-07       1.28306765e-05      -2.26331418e-05 
       6.57662650e-07       1.28306773e-05      -2.26331436e-05 
      -1.84257257e-07       1.35026375e-05      -2.38117153e-05 
      -6.71102394e-07       1.35026367e-05      -2.38117134e-05 
       1.82601269e-07       1.35026377e-05      -2.38117160e-05 
       6.69446407e-07       1.35026385e-05      -2.38117179e-05 
      -1.84257257e-07       1.35026375e-05      -2.38117153e-05 
      -6.71102394e-07       1.35026367e-05      -2.38117134e-05 
       1.82601269e-07       1.35026377e-05      -2.38117160e-05 
       6.69446407e-07       1.35026385e-05      -2.38117179e-05 
      -1.87256659e-07       1.41865377e-05      -2.50106960e-05 
      -6.82545153e-07       1.41865368e-05      -2.50106940e-05 
       1.85578160e-07       1.41865379e-05      -2.50106966e-05 
       6.80866655e-07       1.41865387e-05      -2.50106986e-05 
      -1.87256659e-07       1.41865377e-05      -2.50106960e-05 
      -6.82545153e-07       1.41865368e-05      -2.50106940e-05 
       1.85578160e-07       1.41865379e-05      -2.50106966e-05 
       6.80866655e-07       1.41865387e-05      -2.50106986e-05 
      -1.90152335e-07       1.48820156e-05      -2.62294324e-05 
      -6.93624720e-07       1.48820147e-05      -2.62294304e-05 
       1.88451012e-07       1.48820158e-05      -2.62294331e-05 
       6.91923399e-07       1.48820167e-05      -2.62294351e-05 
      -1.90152335e-07       1.48820156e-05      -2.62294324e-05 
      -6.93624720e-07       1.48820147e-05      -2.62294304e-05 
       1.88451012e-07       1.48820158e-05      -2.62294331e-05 
       6.91923399e-07       1.48820167e-05      -2.62294351e-05 
      -1.92944277e-07       1.55887099e-05      -2.74672738e-05 
      -7.04341090e-07       1.55887090e-05      -2.74672718e-05 
       1.91219831e-07       1.55887101e-05      -2.74672746e-05 
       7.02616644e-07       1.55887110e-05      -2.74672766e-05 
      -1.92944277e-07       1.55887099e-05      -2.74672738e-05 
      -7.04341090e-07       1.55887090e-05      -2.74672718e-05 