# vtk DataFile Version 2.0
./output/onsasExample_BladeCantileverBeamNoPitch_windVel3DDynamic 3D/onsasExample_BladeCantileverBeamNoPitch_windVel3DDynamic 3D_0076.vtk
ASCII
DATASET UNSTRUCTURED_GRID

POINTS 800 float
       6.654521e-24      -7.180703e-02      -7.180703e-02 
      -1.003957e-23       7.180703e-02      -7.180703e-02 
      -6.654521e-24       7.180703e-02       7.180703e-02 
       1.003957e-23      -7.180703e-02       7.180703e-02 
       2.000000e-01      -7.180702e-02      -7.180706e-02 
       2.000000e-01       7.180705e-02      -7.180706e-02 
       2.000000e-01       7.180705e-02       7.180700e-02 
       2.000000e-01      -7.180702e-02       7.180700e-02 
       2.000000e-01      -7.180702e-02      -7.180706e-02 
       2.000000e-01       7.180705e-02      -7.180706e-02 
       2.000000e-01       7.180705e-02       7.180700e-02 
       2.000000e-01      -7.180702e-02       7.180700e-02 
       4.000000e-01      -7.180698e-02      -7.180715e-02 
       3.999999e-01       7.180709e-02      -7.180715e-02 
       4.000000e-01       7.180709e-02       7.180692e-02 
       4.000001e-01      -7.180698e-02       7.180692e-02 
       4.000000e-01      -7.180698e-02      -7.180715e-02 
       3.999999e-01       7.180709e-02      -7.180715e-02 
       4.000000e-01       7.180709e-02       7.180692e-02 
       4.000001e-01      -7.180698e-02       7.180692e-02 
       6.000000e-01      -7.180691e-02      -7.180729e-02 
       5.999999e-01       7.180715e-02      -7.180729e-02 
       6.000000e-01       7.180715e-02       7.180678e-02 
       6.000001e-01      -7.180691e-02       7.180678e-02 
       6.000000e-01      -7.180691e-02      -7.180729e-02 
       5.999999e-01       7.180715e-02      -7.180729e-02 
       6.000000e-01       7.180715e-02       7.180678e-02 
       6.000001e-01      -7.180691e-02       7.180678e-02 
       8.000000e-01      -7.180682e-02      -7.180749e-02 
       7.999999e-01       7.180725e-02      -7.180749e-02 
       8.000000e-01       7.180725e-02       7.180658e-02 
       8.000001e-01      -7.180682e-02       7.180658e-02 
       8.000000e-01      -7.180682e-02      -7.180749e-02 
       7.999999e-01       7.180725e-02      -7.180749e-02 
       8.000000e-01       7.180725e-02       7.180658e-02 
       8.000001e-01      -7.180682e-02       7.180658e-02 
       9.999999e-01      -7.180670e-02      -7.180774e-02 
       9.999999e-01       7.180737e-02      -7.180774e-02 
       1.000000e+00       7.180737e-02       7.180633e-02 
       1.000000e+00      -7.180670e-02       7.180633e-02 
       9.999999e-01      -7.180670e-02      -7.180774e-02 
       9.999999e-01       7.180737e-02      -7.180774e-02 
       1.000000e+00       7.180737e-02       7.180633e-02 
       1.000000e+00      -7.180670e-02       7.180633e-02 
       1.200000e+00      -7.180656e-02      -7.180804e-02 
       1.200000e+00       7.180751e-02      -7.180804e-02 
       1.200000e+00       7.180751e-02       7.180602e-02 
       1.200000e+00      -7.180656e-02       7.180602e-02 
       1.200000e+00      -7.180656e-02      -7.180804e-02 
       1.200000e+00       7.180751e-02      -7.180804e-02 
       1.200000e+00       7.180751e-02       7.180602e-02 
       1.200000e+00      -7.180656e-02       7.180602e-02 
       1.400000e+00      -7.180639e-02      -7.180840e-02 
       1.400000e+00       7.180768e-02      -7.180840e-02 
       1.400000e+00       7.180768e-02       7.180567e-02 
       1.400000e+00      -7.180639e-02       7.180567e-02 
       1.400000e+00      -7.180639e-02      -7.180840e-02 
       1.400000e+00       7.180768e-02      -7.180840e-02 
       1.400000e+00       7.180768e-02       7.180567e-02 
       1.400000e+00      -7.180639e-02       7.180567e-02 
       1.600000e+00      -7.180619e-02      -7.180880e-02 
       1.600000e+00       7.180787e-02      -7.180880e-02 
       1.600000e+00       7.180787e-02       7.180526e-02 
       1.600000e+00      -7.180619e-02       7.180526e-02 
       1.600000e+00      -7.180619e-02      -7.180880e-02 
       1.600000e+00       7.180787e-02      -7.180880e-02 
       1.600000e+00       7.180787e-02       7.180526e-02 
       1.600000e+00      -7.180619e-02       7.180526e-02 
       1.800000e+00      -7.180598e-02      -7.180926e-02 
       1.800000e+00       7.180809e-02      -7.180926e-02 
       1.800000e+00       7.180809e-02       7.180481e-02 
       1.800000e+00      -7.180598e-02       7.180481e-02 
       1.800000e+00      -7.180598e-02      -7.180926e-02 
       1.800000e+00       7.180809e-02      -7.180926e-02 
       1.800000e+00       7.180809e-02       7.180481e-02 
       1.800000e+00      -7.180598e-02       7.180481e-02 
       2.000000e+00      -7.180574e-02      -7.180977e-02 
       2.000000e+00       7.180833e-02      -7.180977e-02 
       2.000000e+00       7.180833e-02       7.180430e-02 
       2.000000e+00      -7.180574e-02       7.180430e-02 
       2.000000e+00      -7.180574e-02      -7.180977e-02 
       2.000000e+00       7.180833e-02      -7.180977e-02 
       2.000000e+00       7.180833e-02       7.180430e-02 
       2.000000e+00      -7.180574e-02       7.180430e-02 
       2.200000e+00      -7.180548e-02      -7.181032e-02 
       2.200000e+00       7.180859e-02      -7.181032e-02 
       2.200000e+00       7.180859e-02       7.180375e-02 
       2.200000e+00      -7.180548e-02       7.180375e-02 
       2.200000e+00      -7.180548e-02      -7.181032e-02 
       2.200000e+00       7.180859e-02      -7.181032e-02 
       2.200000e+00       7.180859e-02       7.180375e-02 
       2.200000e+00      -7.180548e-02       7.180375e-02 
       2.400000e+00      -7.180520e-02      -7.181092e-02 
       2.400000e+00       7.180887e-02      -7.181092e-02 
       2.400000e+00       7.180887e-02       7.180315e-02 
       2.400000e+00      -7.180520e-02       7.180315e-02 
       2.400000e+00      -7.180520e-02      -7.181092e-02 
       2.400000e+00       7.180887e-02      -7.181092e-02 
       2.400000e+00       7.180887e-02       7.180315e-02 
       2.400000e+00      -7.180520e-02       7.180315e-02 
       2.600000e+00      -7.180489e-02      -7.181156e-02 
       2.600000e+00       7.180917e-02      -7.181156e-02 
       2.600000e+00       7.180917e-02       7.180250e-02 
       2.600000e+00      -7.180489e-02       7.180250e-02 
       2.600000e+00      -7.180489e-02      -7.181156e-02 
       2.600000e+00       7.180917e-02      -7.181156e-02 
       2.600000e+00       7.180917e-02       7.180250e-02 
       2.600000e+00      -7.180489e-02       7.180250e-02 
       2.800000e+00      -7.180457e-02      -7.181225e-02 
       2.800000e+00       7.180950e-02      -7.181225e-02 
       2.800000e+00       7.180950e-02       7.180181e-02 
       2.800000e+00      -7.180457e-02       7.180181e-02 
       2.800000e+00      -7.180457e-02      -7.181225e-02 
       2.800000e+00       7.180950e-02      -7.181225e-02 
       2.800000e+00       7.180950e-02       7.180181e-02 
       2.800000e+00      -7.180457e-02       7.180181e-02 
       3.000000e+00      -7.180422e-02      -7.181299e-02 
       3.000000e+00       7.180984e-02      -7.181299e-02 
       3.000000e+00       7.180984e-02       7.180108e-02 
       3.000000e+00      -7.180422e-02       7.180108e-02 
       3.000000e+00      -7.180422e-02      -7.181299e-02 
       3.000000e+00       7.180984e-02      -7.181299e-02 
       3.000000e+00       7.180984e-02       7.180108e-02 
       3.000000e+00      -7.180422e-02       7.180108e-02 
       3.200000e+00      -7.180386e-02      -7.181376e-02 
       3.200000e+00       7.181021e-02      -7.181376e-02 
       3.200000e+00       7.181021e-02       7.180030e-02 
       3.200000e+00      -7.180386e-02       7.180030e-02 
       3.200000e+00      -7.180386e-02      -7.181376e-02 
       3.200000e+00       7.181021e-02      -7.181376e-02 
       3.200000e+00       7.181021e-02       7.180030e-02 
       3.200000e+00      -7.180386e-02       7.180030e-02 
       3.400000e+00      -7.180347e-02      -7.181458e-02 
       3.400000e+00       7.181059e-02      -7.181458e-02 
       3.400000e+00       7.181059e-02       7.179949e-02 
       3.400000e+00      -7.180347e-02       7.179949e-02 
       3.400000e+00      -7.180347e-02      -7.181458e-02 
       3.400000e+00       7.181059e-02      -7.181458e-02 
       3.400000e+00       7.181059e-02       7.179949e-02 
       3.400000e+00      -7.180347e-02       7.179949e-02 
       3.600000e+00      -7.180307e-02      -7.181544e-02 
       3.600000e+00       7.181100e-02      -7.181544e-02 
       3.600000e+00       7.181100e-02       7.179863e-02 
       3.600000e+00      -7.180307e-02       7.179863e-02 
       3.600000e+00      -7.180307e-02      -7.181544e-02 
       3.600000e+00       7.181100e-02      -7.181544e-02 
       3.600000e+00       7.181100e-02       7.179863e-02 
       3.600000e+00      -7.180307e-02       7.179863e-02 
       3.800000e+00      -7.180264e-02      -7.181634e-02 
       3.800000e+00       7.181142e-02      -7.181634e-02 
       3.800000e+00       7.181142e-02       7.179773e-02 
       3.800000e+00      -7.180264e-02       7.179773e-02 
       3.800000e+00      -7.180264e-02      -7.181634e-02 
       3.800000e+00       7.181142e-02      -7.181634e-02 
       3.800000e+00       7.181142e-02       7.179773e-02 
       3.800000e+00      -7.180264e-02       7.179773e-02 
       4.000000e+00      -7.180220e-02      -7.181728e-02 
       3.999999e+00       7.181186e-02      -7.181728e-02 
       4.000000e+00       7.181186e-02       7.179679e-02 
       4.000001e+00      -7.180220e-02       7.179679e-02 
       4.000000e+00      -7.180220e-02      -7.181728e-02 
       3.999999e+00       7.181186e-02      -7.181728e-02 
       4.000000e+00       7.181186e-02       7.179679e-02 
       4.000001e+00      -7.180220e-02       7.179679e-02 
       4.200000e+00      -7.180175e-02      -7.181825e-02 
[...]
POINT_DATA       800 
VECTORS Displacements float
       6.65452135e-24      -2.77555756e-17      -1.38777878e-17 
      -1.00395702e-23       0.00000000e+00      -1.38777878e-17 
      -6.65452135e-24       2.77555756e-17       1.38777878e-17 
       1.00395702e-23       0.00000000e+00       1.38777878e-17 
      -1.09195751e-08       1.37170632e-08      -2.89082937e-08 
      -3.05561491e-08       1.37170618e-08      -2.89082540e-08 
       1.08338392e-08       1.37170278e-08      -2.89082600e-08 
       3.04704132e-08       1.37170291e-08      -2.89082996e-08 
      -1.09195751e-08       1.37170632e-08      -2.89082937e-08 
      -3.05561491e-08       1.37170618e-08      -2.89082540e-08 
       1.08338392e-08       1.37170278e-08      -2.89082600e-08 
       3.04704132e-08       1.37170291e-08      -2.89082996e-08 
      -2.16492538e-08       5.45170924e-08      -1.14929232e-07 
      -6.05442048e-08       5.45170872e-08      -1.14929147e-07 
       2.14775909e-08       5.45170246e-08      -1.14929171e-07 
       6.03725419e-08       5.45170298e-08      -1.14929255e-07 
      -2.16492538e-08       5.45170924e-08      -1.14929232e-07 
      -6.05442048e-08       5.45170872e-08      -1.14929147e-07 
       2.14775909e-08       5.45170246e-08      -1.14929171e-07 
       6.03725419e-08       5.45170298e-08      -1.14929255e-07 
      -3.21890343e-08       1.21873403e-07      -2.57006956e-07 
      -8.99641650e-08       1.21873391e-07      -2.57006821e-07 
       3.19312569e-08       1.21873305e-07      -2.57006873e-07 
       8.97063875e-08       1.21873317e-07      -2.57007008e-07 
      -3.21890343e-08       1.21873403e-07      -2.57006956e-07 
      -8.99641650e-08       1.21873391e-07      -2.57006821e-07 
       3.19312569e-08       1.21873305e-07      -2.57006873e-07 
       8.97063875e-08       1.21873317e-07      -2.57007008e-07 
      -4.25389146e-08       2.15259309e-07      -4.54085607e-07 
      -1.18816028e-07       2.15259288e-07      -4.54085417e-07 
       4.21948387e-08       2.15259184e-07      -4.54085507e-07 
       1.18471952e-07       2.15259204e-07      -4.54085697e-07 
      -4.25389146e-08       2.15259309e-07      -4.54085607e-07 
      -1.18816028e-07       2.15259288e-07      -4.54085417e-07 
       4.21948387e-08       2.15259184e-07      -4.54085507e-07 
       1.18471952e-07       2.15259204e-07      -4.54085697e-07 
      -5.26988931e-08       3.34148125e-07      -7.05109325e-07 
      -1.47099792e-07       3.34148094e-07      -7.05109076e-07 
       5.22683383e-08       3.34147975e-07      -7.05109214e-07 
       1.46669238e-07       3.34148006e-07      -7.05109464e-07 
      -5.26988931e-08       3.34148125e-07      -7.05109325e-07 
      -1.47099792e-07       3.34148094e-07      -7.05109076e-07 
       5.22683383e-08       3.34147975e-07      -7.05109214e-07 
       1.46669238e-07       3.34148006e-07      -7.05109464e-07 
      -6.26689680e-08       4.78013167e-07      -1.00902225e-06 
      -1.74815456e-07       4.78013123e-07      -1.00902194e-06 
       6.21517573e-08       4.78012995e-07      -1.00902214e-06 
       1.74298245e-07       4.78013038e-07      -1.00902245e-06 
      -6.26689680e-08       4.78013167e-07      -1.00902225e-06 
      -1.74815456e-07       4.78013123e-07      -1.00902194e-06 
       6.21517573e-08       4.78012995e-07      -1.00902214e-06 
       1.74298245e-07       4.78013038e-07      -1.00902245e-06 
      -7.24491376e-08       6.46327749e-07      -1.36476853e-06 
      -2.01963017e-07       6.46327690e-07      -1.36476815e-06 
       7.18450985e-08       6.46327556e-07      -1.36476841e-06 
       2.01358978e-07       6.46327614e-07      -1.36476879e-06 
      -7.24491376e-08       6.46327749e-07      -1.36476853e-06 
      -2.01963017e-07       6.46327690e-07      -1.36476815e-06 
       7.18450985e-08       6.46327556e-07      -1.36476841e-06 
       2.01358978e-07       6.46327614e-07      -1.36476879e-06 
      -8.20393999e-08       8.38565186e-07      -1.77129230e-06 
      -2.28542474e-07       8.38565111e-07      -1.77129185e-06 
       8.13483625e-08       8.38564975e-07      -1.77129218e-06 
       2.27851436e-07       8.38565049e-07      -1.77129263e-06 
      -8.20393999e-08       8.38565186e-07      -1.77129230e-06 
      -2.28542474e-07       8.38565111e-07      -1.77129185e-06 
       8.13483625e-08       8.38564975e-07      -1.77129218e-06 
       2.27851436e-07       8.38565049e-07      -1.77129263e-06 
      -9.14397531e-08       1.05419879e-06      -2.22753770e-06 
      -2.54553825e-07       1.05419870e-06      -2.22753717e-06 
       9.06615509e-08       1.05419856e-06      -2.22753759e-06 
       2.53775623e-07       1.05419866e-06      -2.22753811e-06 
      -9.14397531e-08       1.05419879e-06      -2.22753770e-06 
      -2.54553825e-07       1.05419870e-06      -2.22753717e-06 
       9.06615509e-08       1.05419856e-06      -2.22753759e-06 
       2.53775623e-07       1.05419866e-06      -2.22753811e-06 
      -1.00650196e-07       1.29270188e-06      -2.73244887e-06 
      -2.79997068e-07       1.29270177e-06      -2.73244827e-06 
       9.97846663e-08       1.29270164e-06      -2.73244877e-06 
       2.79131538e-07       1.29270175e-06      -2.73244937e-06 
      -1.00650196e-07       1.29270188e-06      -2.73244887e-06 
      -2.79997068e-07       1.29270177e-06      -2.73244827e-06 
       9.97846663e-08       1.29270164e-06      -2.73244877e-06 
       2.79131538e-07       1.29270175e-06      -2.73244937e-06 
      -1.09664891e-07       1.55355728e-06      -3.28498798e-06 
      -3.04886757e-07       1.55355715e-06      -3.28498731e-06 
       1.08741536e-07       1.55355704e-06      -3.28498790e-06 
       3.03963402e-07       1.55355717e-06      -3.28498857e-06 
      -1.09664891e-07       1.55355728e-06      -3.28498798e-06 
      -3.04886757e-07       1.55355715e-06      -3.28498731e-06 
       1.08741536e-07       1.55355704e-06      -3.28498790e-06 
       3.03963402e-07       1.55355717e-06      -3.28498857e-06 
      -1.18507111e-07       1.83628530e-06      -3.88418679e-06 
      -3.29266139e-07       1.83628514e-06      -3.88418605e-06 
       1.17525503e-07       1.83628506e-06      -3.88418675e-06 
       3.28284532e-07       1.83628521e-06      -3.88418749e-06 
      -1.18507111e-07       1.83628530e-06      -3.88418679e-06 
      -3.29266139e-07       1.83628514e-06      -3.88418605e-06 
       1.17525503e-07       1.83628506e-06      -3.88418675e-06 
       3.28284532e-07       1.83628521e-06      -3.88418749e-06 
      -1.27176852e-07       2.14041546e-06      -4.52909386e-06 
      -3.53135210e-07       2.14041528e-06      -4.52909305e-06 
       1.26136572e-07       2.14041522e-06      -4.52909385e-06 
       3.52094930e-07       2.14041540e-06      -4.52909466e-06 
      -1.27176852e-07       2.14041546e-06      -4.52909386e-06 
      -3.53135210e-07       2.14041528e-06      -4.52909305e-06 
       1.26136572e-07       2.14041522e-06      -4.52909385e-06 
       3.52094930e-07       2.14041540e-06      -4.52909466e-06 
      -1.35674110e-07       2.46547729e-06      -5.21875774e-06 
      -3.76493964e-07       2.46547708e-06      -5.21875685e-06 
       1.34574748e-07       2.46547705e-06      -5.21875776e-06 
       3.75394602e-07       2.46547726e-06      -5.21875865e-06 
      -1.35674110e-07       2.46547729e-06      -5.21875774e-06 
      -3.76493964e-07       2.46547708e-06      -5.21875685e-06 
       1.34574748e-07       2.46547705e-06      -5.21875776e-06 
       3.75394602e-07       2.46547726e-06      -5.21875865e-06 
      -1.43998880e-07       2.81100032e-06      -5.95222697e-06 
      -3.99342397e-07       2.81100009e-06      -5.95222601e-06 
       1.42840034e-07       2.81100009e-06      -5.95222703e-06 
       3.98183552e-07       2.81100032e-06      -5.95222799e-06 
      -1.43998880e-07       2.81100032e-06      -5.95222697e-06 
      -3.99342397e-07       2.81100009e-06      -5.95222601e-06 
       1.42840034e-07       2.81100009e-06      -5.95222703e-06 
       3.98183552e-07       2.81100032e-06      -5.95222799e-06 
      -1.52151158e-07       3.17651407e-06      -6.72855010e-06 
      -4.21680507e-07       3.17651382e-06      -6.72854906e-06 
       1.50932436e-07       3.17651385e-06      -6.72855020e-06 
       4.20461785e-07       3.17651410e-06      -6.72855124e-06 
      -1.52151158e-07       3.17651407e-06      -6.72855010e-06 
      -4.21680507e-07       3.17651382e-06      -6.72854906e-06 
       1.50932436e-07       3.17651385e-06      -6.72855020e-06 
       4.20461785e-07       3.17651410e-06      -6.72855124e-06 
      -1.60130939e-07       3.56154808e-06      -7.54677568e-06 
      -4.43508286e-07       3.56154780e-06      -7.54677456e-06 
       1.58851958e-07       3.56154787e-06      -7.54677582e-06 
       4.42229304e-07       3.56154815e-06      -7.54677694e-06 
      -1.60130939e-07       3.56154808e-06      -7.54677568e-06 
      -4.43508286e-07       3.56154780e-06      -7.54677456e-06 
       1.58851958e-07       3.56154787e-06      -7.54677582e-06 
       4.42229304e-07       3.56154815e-06      -7.54677694e-06 
      -1.67938219e-07       3.96563187e-06      -8.40595225e-06 
      -4.64825731e-07       3.96563156e-06      -8.40595105e-06 
       1.66598603e-07       3.96563166e-06      -8.40595244e-06 
       4.63486114e-07       3.96563197e-06      -8.40595364e-06 
      -1.67938219e-07       3.96563187e-06      -8.40595225e-06 
      -4.64825731e-07       3.96563156e-06      -8.40595105e-06 
       1.66598603e-07       3.96563166e-06      -8.40595244e-06 
       4.63486114e-07       3.96563197e-06      -8.40595364e-06 
      -1.75572994e-07       4.38829496e-06      -9.30512837e-06 
      -4.85632838e-07       4.38829462e-06      -9.30512709e-06 
       1.74172377e-07       4.38829477e-06      -9.30512860e-06 
       4.84232221e-07       4.38829510e-06      -9.30512989e-06 
      -1.75572994e-07       4.38829496e-06      -9.30512837e-06 
      -4.85632838e-07       4.38829462e-06      -9.30512709e-06 
       1.74172377e-07       4.38829477e-06      -9.30512860e-06 
       4.84232221e-07       4.38829510e-06      -9.30512989e-06 
      -1.83035259e-07       4.82906689e-06      -1.02433526e-05 
      -5.05929604e-07       4.82906652e-06      -1.02433512e-05 
       1.81573284e-07       4.82906670e-06      -1.02433529e-05 
       5.04467628e-07       4.82906707e-06      -1.02433542e-05 
      -1.83035259e-07       4.82906689e-06      -1.02433526e-05 
      -5.05929604e-07       4.82906652e-06      -1.02433512e-05 
       1.81573284e-07       4.82906670e-06      -1.02433529e-05 
       5.04467628e-07       4.82906707e-06      -1.02433542e-05 
      -1.90323129e-07       5.28748659e-06      -1.12196909e-05 
      -5.25734344e-07       5.28748619e-06      -1.12196894e-05 
       1.88820395e-07       5.28748642e-06      -1.12196912e-05 
       5.24231611e-07       5.28748681e-06      -1.12196926e-05 
      -1.90323129e-07       5.28748659e-06      -1.12196909e-05 
      -5.25734344e-07       5.28748619e-06      -1.12196894e-05 
       1.88820395e-07       5.28748642e-06      -1.12196912e-05 
       5.24231611e-07       5.28748681e-06      -1.12196926e-05 
      -1.97455529e-07       5.76313022e-06      -1.22332780e-05 
      -5.45085873e-07       5.76312980e-06      -1.22332764e-05 
       1.95911525e-07       5.76313008e-06      -1.22332783e-05 
       5.43541868e-07       5.76313050e-06      -1.22332799e-05 
      -1.97455529e-07       5.76313022e-06      -1.22332780e-05 
      -5.45085873e-07       5.76312980e-06      -1.22332764e-05 
       1.95911525e-07       5.76313008e-06      -1.22332783e-05 
       5.43541868e-07       5.76313050e-06      -1.22332799e-05 
      -2.04432457e-07       6.25558316e-06      -1.32832655e-05 
      -5.63984183e-07       6.25558271e-06      -1.32832639e-05 
       2.02846680e-07       6.25558303e-06      -1.32832659e-05 
       5.62398406e-07       6.25558348e-06      -1.32832675e-05 
      -2.04432457e-07       6.25558316e-06      -1.32832655e-05 
      -5.63984183e-07       6.25558271e-06      -1.32832639e-05 
       2.02846680e-07       6.25558303e-06      -1.32832659e-05 
       5.62398406e-07       6.25558348e-06      -1.32832675e-05 
      -2.11253904e-07       6.76443074e-06      -1.43688050e-05 
      -5.82429269e-07       6.76443026e-06      -1.43688033e-05 
       2.09625864e-07       6.76443063e-06      -1.43688055e-05 
       5.80801229e-07       6.76443111e-06      -1.43688072e-05 
      -2.11253904e-07       6.76443074e-06      -1.43688050e-05 
      -5.82429269e-07       6.76443026e-06      -1.43688033e-05 
       2.09625864e-07       6.76443063e-06      -1.43688055e-05 
       5.80801229e-07       6.76443111e-06      -1.43688072e-05 
      -2.17919866e-07       7.28925832e-06      -1.54890482e-05 
      -6.00421126e-07       7.28925781e-06      -1.54890465e-05 
       2.16249084e-07       7.28925824e-06      -1.54890488e-05 
       5.98750345e-07       7.28925875e-06      -1.54890505e-05 
      -2.17919866e-07       7.28925832e-06      -1.54890482e-05 
      -6.00421126e-07       7.28925781e-06      -1.54890465e-05 
       2.16249084e-07       7.28925824e-06      -1.54890488e-05 
       5.98750345e-07       7.28925875e-06      -1.54890505e-05 
      -2.24430337e-07       7.82965126e-06      -1.66431467e-05 
      -6.17959746e-07       7.82965072e-06      -1.66431449e-05 
       2.22716348e-07       7.82965120e-06      -1.66431474e-05 
       6.16245758e-07       7.82965174e-06      -1.66431492e-05 
      -2.24430337e-07       7.82965126e-06      -1.66431467e-05 
      -6.17959746e-07       7.82965072e-06      -1.66431449e-05 
       2.22716348e-07       7.82965120e-06      -1.66431474e-05 
       6.16245758e-07       7.82965174e-06      -1.66431492e-05 
      -2.30785310e-07       8.38519492e-06      -1.78302522e-05 
      -6.35045126e-07       8.38519435e-06      -1.78302502e-05 
       2.29027657e-07       8.38519488e-06      -1.78302528e-05 
       6.33287474e-07       8.38519545e-06      -1.78302548e-05 
      -2.30785310e-07       8.38519492e-06      -1.78302522e-05 
      -6.35045126e-07       8.38519435e-06      -1.78302502e-05 
       2.29027657e-07       8.38519488e-06      -1.78302528e-05 
       6.33287474e-07       8.38519545e-06      -1.78302548e-05 
      -2.36984778e-07       8.95547465e-06      -1.90495161e-05 
      -6.51677257e-07       8.95547405e-06      -1.90495141e-05 
       2.35183023e-07       8.95547463e-06      -1.90495169e-05 
       6.49875502e-07       8.95547522e-06      -1.90495189e-05 
      -2.36984778e-07       8.95547465e-06      -1.90495161e-05 
      -6.51677257e-07       8.95547405e-06      -1.90495141e-05 
       2.35183023e-07       8.95547463e-06      -1.90495169e-05 
       6.49875502e-07       8.95547522e-06      -1.90495189e-05 
      -2.43028739e-07       9.54007580e-06      -2.03000902e-05 
      -6.67856135e-07       9.54007517e-06      -2.03000882e-05 
       2.41182447e-07       9.54007580e-06      -2.03000911e-05 
       6.66009843e-07       9.54007643e-06      -2.03000931e-05 
      -2.43028739e-07       9.54007580e-06      -2.03000902e-05 
      -6.67856135e-07       9.54007517e-06      -2.03000882e-05 
       2.41182447e-07       9.54007580e-06      -2.03000911e-05 
       6.66009843e-07       9.54007643e-06      -2.03000931e-05 
      -2.48917185e-07       1.01385837e-05      -2.15811262e-05 
      -6.83581755e-07       1.01385831e-05      -2.15811240e-05 
       2.47025937e-07       1.01385837e-05      -2.15811270e-05 
       6.81690506e-07       1.01385844e-05      -2.15811292e-05 
      -2.48917185e-07       1.01385837e-05      -2.15811262e-05 
      -6.83581754e-07       1.01385831e-05      -2.15811240e-05 
       2.47025937e-07       1.01385837e-05      -2.15811270e-05 
       6.81690506e-07       1.01385844e-05      -2.15811292e-05 
      -2.54651409e-07       1.07505931e-05      -2.28917925e-05 
      -6.98875465e-07       1.07505924e-05      -2.28917903e-05 
       2.52728941e-07       1.07505932e-05      -2.28917935e-05 
       6.96952997e-07       1.07505939e-05      -2.28917957e-05 
      -2.54651409e-07       1.07505931e-05      -2.28917925e-05 
      -6.98875465e-07       1.07505924e-05      -2.28917903e-05 
       2.52728941e-07       1.07505932e-05      -2.28917935e-05 
       6.96952997e-07       1.07505939e-05      -2.28917957e-05 
      -2.60247126e-07       1.13757357e-05      -2.42313266e-05 
      -7.13772807e-07       1.13757350e-05      -2.42313243e-05 
       2.58292935e-07       1.13757358e-05      -2.42313276e-05 
       7.11818616e-07       1.13757365e-05      -2.42313299e-05 
      -2.60247126e-07       1.13757357e-05      -2.42313266e-05 
      -7.13772807e-07       1.13757350e-05      -2.42313243e-05 
       2.58292935e-07       1.13757358e-05      -2.42313276e-05 
       7.11818616e-07       1.13757365e-05      -2.42313299e-05 
      -2.65704327e-07       1.20136524e-05      -2.55989827e-05 
      -7.28273770e-07       1.20136517e-05      -2.55989804e-05 
       2.63717930e-07       1.20136525e-05      -2.55989838e-05 
       7.26287373e-07       1.20136532e-05      -2.55989862e-05 
      -2.65704327e-07       1.20136524e-05      -2.55989827e-05 
      -7.28273770e-07       1.20136517e-05      -2.55989804e-05 
       2.63717930e-07       1.20136525e-05      -2.55989838e-05 
       7.26287373e-07       1.20136532e-05      -2.55989862e-05 
      -2.71023008e-07       1.26639841e-05      -2.69940154e-05 
      -7.42378352e-07       1.26639833e-05      -2.69940130e-05 
       2.69003928e-07       1.26639842e-05      -2.69940166e-05 
       7.40359270e-07       1.26639850e-05      -2.69940190e-05 
      -2.71023008e-07       1.26639841e-05      -2.69940154e-05 
      -7.42378352e-07       1.26639833e-05      -2.69940130e-05 
       2.69003928e-07       1.26639842e-05      -2.69940166e-05 
       7.40359270e-07       1.26639850e-05      -2.69940190e-05 
      -2.76203163e-07       1.33263716e-05      -2.84156791e-05 
      -7.56086543e-07       1.33263708e-05      -2.84156766e-05 
       2.74150937e-07       1.33263718e-05      -2.84156803e-05 
       7.54034316e-07       1.33263726e-05      -2.84156828e-05 
      -2.76203163e-07       1.33263716e-05      -2.84156791e-05 
      -7.56086543e-07       1.33263708e-05      -2.84156766e-05 
       2.74150937e-07       1.33263718e-05      -2.84156803e-05 
       7.54034316e-07       1.33263726e-05      -2.84156828e-05 
      -2.81244783e-07       1.40004559e-05      -2.98632280e-05 
      -7.69398338e-07       1.40004551e-05      -2.98632255e-05 
       2.79158963e-07       1.40004561e-05      -2.98632293e-05 
       7.67312517e-07       1.40004569e-05      -2.98632319e-05 
      -2.81244783e-07       1.40004559e-05      -2.98632280e-05 
      -7.69398338e-07       1.40004551e-05      -2.98632255e-05 
       2.79158963e-07       1.40004561e-05      -2.98632293e-05 
       7.67312517e-07       1.40004569e-05      -2.98632319e-05 
      -2.86147864e-07       1.46858779e-05      -3.13359168e-05 
      -7.82313730e-07       1.46858770e-05      -3.13359142e-05 
       2.84028013e-07       1.46858781e-05      -3.13359182e-05 
       7.80193879e-07       1.46858790e-05      -3.13359208e-05 
      -2.86147864e-07       1.46858779e-05      -3.13359168e-05 
      -7.82313730e-07       1.46858770e-05      -3.13359142e-05 
       2.84028013e-07       1.46858781e-05      -3.13359182e-05 
       7.80193879e-07       1.46858790e-05      -3.13359208e-05 
      -2.90912395e-07       1.53822784e-05      -3.28329998e-05 
      -7.94832712e-07       1.53822776e-05      -3.28329971e-05 
       2.88758095e-07       1.53822787e-05      -3.28330012e-05 
       7.92678412e-07       1.53822796e-05      -3.28330039e-05 
      -2.90912395e-07       1.53822784e-05      -3.28329998e-05 
      -7.94832712e-07       1.53822776e-05      -3.28329971e-05 