# vtk DataFile Version 2.0
./output/onsasExample_BladeCantileverBeamNoPitch_windVel3DDynamic 3D/onsasExample_BladeCantileverBeamNoPitch_windVel3DDynamic 3D_0058.vtk
ASCII
DATASET UNSTRUCTURED_GRID

POINTS 800 float
       4.252388e-24      -7.180703e-02      -7.180703e-02 
       2.759963e-23       7.180703e-02      -7.180703e-02 
      -4.252388e-24       7.180703e-02       7.180703e-02 
      -2.759963e-23      -7.180703e-02       7.180703e-02 
       2.000000e-01      -7.180702e-02      -7.180706e-02 
       2.000000e-01       7.180705e-02      -7.180706e-02 
       2.000000e-01       7.180705e-02       7.180701e-02 
       2.000000e-01      -7.180702e-02       7.180701e-02 
       2.000000e-01      -7.180702e-02      -7.180706e-02 
       2.000000e-01       7.180705e-02      -7.180706e-02 
       2.000000e-01       7.180705e-02       7.180701e-02 
       2.000000e-01      -7.180702e-02       7.180701e-02 
       4.000000e-01      -7.180698e-02      -7.180714e-02 
       3.999999e-01       7.180709e-02      -7.180714e-02 
       4.000000e-01       7.180709e-02       7.180693e-02 
       4.000001e-01      -7.180698e-02       7.180693e-02 
       4.000000e-01      -7.180698e-02      -7.180714e-02 
       3.999999e-01       7.180709e-02      -7.180714e-02 
       4.000000e-01       7.180709e-02       7.180693e-02 
       4.000001e-01      -7.180698e-02       7.180693e-02 
       6.000000e-01      -7.180691e-02      -7.180727e-02 
       5.999999e-01       7.180715e-02      -7.180727e-02 
       6.000000e-01       7.180715e-02       7.180679e-02 
       6.000001e-01      -7.180691e-02       7.180679e-02 
       6.000000e-01      -7.180691e-02      -7.180727e-02 
       5.999999e-01       7.180715e-02      -7.180727e-02 
       6.000000e-01       7.180715e-02       7.180679e-02 
       6.000001e-01      -7.180691e-02       7.180679e-02 
       8.000000e-01      -7.180682e-02      -7.180746e-02 
       7.999999e-01       7.180725e-02      -7.180746e-02 
       8.000000e-01       7.180725e-02       7.180661e-02 
       8.000001e-01      -7.180682e-02       7.180661e-02 
       8.000000e-01      -7.180682e-02      -7.180746e-02 
       7.999999e-01       7.180725e-02      -7.180746e-02 
       8.000000e-01       7.180725e-02       7.180661e-02 
       8.000001e-01      -7.180682e-02       7.180661e-02 
       1.000000e+00      -7.180670e-02      -7.180769e-02 
       9.999999e-01       7.180737e-02      -7.180769e-02 
       1.000000e+00       7.180737e-02       7.180638e-02 
       1.000000e+00      -7.180670e-02       7.180638e-02 
       1.000000e+00      -7.180670e-02      -7.180769e-02 
       9.999999e-01       7.180737e-02      -7.180769e-02 
       1.000000e+00       7.180737e-02       7.180638e-02 
       1.000000e+00      -7.180670e-02       7.180638e-02 
       1.200000e+00      -7.180656e-02      -7.180797e-02 
       1.200000e+00       7.180751e-02      -7.180797e-02 
       1.200000e+00       7.180751e-02       7.180609e-02 
       1.200000e+00      -7.180656e-02       7.180609e-02 
       1.200000e+00      -7.180656e-02      -7.180797e-02 
       1.200000e+00       7.180751e-02      -7.180797e-02 
       1.200000e+00       7.180751e-02       7.180609e-02 
       1.200000e+00      -7.180656e-02       7.180609e-02 
       1.400000e+00      -7.180639e-02      -7.180831e-02 
       1.400000e+00       7.180768e-02      -7.180831e-02 
       1.400000e+00       7.180768e-02       7.180576e-02 
       1.400000e+00      -7.180639e-02       7.180576e-02 
       1.400000e+00      -7.180639e-02      -7.180831e-02 
       1.400000e+00       7.180768e-02      -7.180831e-02 
       1.400000e+00       7.180768e-02       7.180576e-02 
       1.400000e+00      -7.180639e-02       7.180576e-02 
       1.600000e+00      -7.180620e-02      -7.180868e-02 
       1.600000e+00       7.180787e-02      -7.180868e-02 
       1.600000e+00       7.180787e-02       7.180538e-02 
       1.600000e+00      -7.180620e-02       7.180538e-02 
       1.600000e+00      -7.180620e-02      -7.180868e-02 
       1.600000e+00       7.180787e-02      -7.180868e-02 
       1.600000e+00       7.180787e-02       7.180538e-02 
       1.600000e+00      -7.180620e-02       7.180538e-02 
       1.800000e+00      -7.180598e-02      -7.180911e-02 
       1.800000e+00       7.180808e-02      -7.180911e-02 
       1.800000e+00       7.180808e-02       7.180496e-02 
       1.800000e+00      -7.180598e-02       7.180496e-02 
       1.800000e+00      -7.180598e-02      -7.180911e-02 
       1.800000e+00       7.180808e-02      -7.180911e-02 
       1.800000e+00       7.180808e-02       7.180496e-02 
       1.800000e+00      -7.180598e-02       7.180496e-02 
       2.000000e+00      -7.180575e-02      -7.180958e-02 
       2.000000e+00       7.180832e-02      -7.180958e-02 
       2.000000e+00       7.180832e-02       7.180449e-02 
       2.000000e+00      -7.180575e-02       7.180449e-02 
       2.000000e+00      -7.180575e-02      -7.180958e-02 
       2.000000e+00       7.180832e-02      -7.180958e-02 
       2.000000e+00       7.180832e-02       7.180449e-02 
       2.000000e+00      -7.180575e-02       7.180449e-02 
       2.200000e+00      -7.180549e-02      -7.181009e-02 
       2.200000e+00       7.180858e-02      -7.181009e-02 
       2.200000e+00       7.180858e-02       7.180397e-02 
       2.200000e+00      -7.180549e-02       7.180397e-02 
       2.200000e+00      -7.180549e-02      -7.181009e-02 
       2.200000e+00       7.180858e-02      -7.181009e-02 
       2.200000e+00       7.180858e-02       7.180397e-02 
       2.200000e+00      -7.180549e-02       7.180397e-02 
       2.400000e+00      -7.180521e-02      -7.181065e-02 
       2.400000e+00       7.180886e-02      -7.181065e-02 
       2.400000e+00       7.180886e-02       7.180342e-02 
       2.400000e+00      -7.180521e-02       7.180342e-02 
       2.400000e+00      -7.180521e-02      -7.181065e-02 
       2.400000e+00       7.180886e-02      -7.181065e-02 
       2.400000e+00       7.180886e-02       7.180342e-02 
       2.400000e+00      -7.180521e-02       7.180342e-02 
       2.600000e+00      -7.180490e-02      -7.181125e-02 
       2.600000e+00       7.180916e-02      -7.181125e-02 
       2.600000e+00       7.180916e-02       7.180282e-02 
       2.600000e+00      -7.180490e-02       7.180282e-02 
       2.600000e+00      -7.180490e-02      -7.181125e-02 
       2.600000e+00       7.180916e-02      -7.181125e-02 
       2.600000e+00       7.180916e-02       7.180282e-02 
       2.600000e+00      -7.180490e-02       7.180282e-02 
       2.800000e+00      -7.180458e-02      -7.181189e-02 
       2.800000e+00       7.180948e-02      -7.181189e-02 
       2.800000e+00       7.180948e-02       7.180218e-02 
       2.800000e+00      -7.180458e-02       7.180218e-02 
       2.800000e+00      -7.180458e-02      -7.181189e-02 
       2.800000e+00       7.180948e-02      -7.181189e-02 
       2.800000e+00       7.180948e-02       7.180218e-02 
       2.800000e+00      -7.180458e-02       7.180218e-02 
       3.000000e+00      -7.180424e-02      -7.181257e-02 
       3.000000e+00       7.180983e-02      -7.181257e-02 
       3.000000e+00       7.180983e-02       7.180149e-02 
       3.000000e+00      -7.180424e-02       7.180149e-02 
       3.000000e+00      -7.180424e-02      -7.181257e-02 
       3.000000e+00       7.180983e-02      -7.181257e-02 
       3.000000e+00       7.180983e-02       7.180149e-02 
       3.000000e+00      -7.180424e-02       7.180149e-02 
       3.200000e+00      -7.180387e-02      -7.181329e-02 
       3.200000e+00       7.181019e-02      -7.181329e-02 
       3.200000e+00       7.181019e-02       7.180077e-02 
       3.200000e+00      -7.180387e-02       7.180077e-02 
       3.200000e+00      -7.180387e-02      -7.181329e-02 
       3.200000e+00       7.181019e-02      -7.181329e-02 
       3.200000e+00       7.181019e-02       7.180077e-02 
       3.200000e+00      -7.180387e-02       7.180077e-02 
       3.400000e+00      -7.180349e-02      -7.181405e-02 
       3.400000e+00       7.181057e-02      -7.181405e-02 
       3.400000e+00       7.181057e-02       7.180001e-02 
       3.400000e+00      -7.180349e-02       7.180001e-02 
       3.400000e+00      -7.180349e-02      -7.181405e-02 
       3.400000e+00       7.181057e-02      -7.181405e-02 
       3.400000e+00       7.181057e-02       7.180001e-02 
       3.400000e+00      -7.180349e-02       7.180001e-02 
       3.600000e+00      -7.180309e-02      -7.181485e-02 
       3.600000e+00       7.181098e-02      -7.181485e-02 
       3.600000e+00       7.181098e-02       7.179922e-02 
       3.600000e+00      -7.180309e-02       7.179922e-02 
       3.600000e+00      -7.180309e-02      -7.181485e-02 
       3.600000e+00       7.181098e-02      -7.181485e-02 
       3.600000e+00       7.181098e-02       7.179922e-02 
       3.600000e+00      -7.180309e-02       7.179922e-02 
       3.800000e+00      -7.180267e-02      -7.181568e-02 
       3.800000e+00       7.181140e-02      -7.181568e-02 
       3.800000e+00       7.181140e-02       7.179838e-02 
       3.800000e+00      -7.180267e-02       7.179838e-02 
       3.800000e+00      -7.180267e-02      -7.181568e-02 
       3.800000e+00       7.181140e-02      -7.181568e-02 
       3.800000e+00       7.181140e-02       7.179838e-02 
       3.800000e+00      -7.180267e-02       7.179838e-02 
       4.000000e+00      -7.180223e-02      -7.181655e-02 
       4.000000e+00       7.181183e-02      -7.181655e-02 
       4.000000e+00       7.181183e-02       7.179751e-02 
       4.000000e+00      -7.180223e-02       7.179751e-02 
       4.000000e+00      -7.180223e-02      -7.181655e-02 
       4.000000e+00       7.181183e-02      -7.181655e-02 
       4.000000e+00       7.181183e-02       7.179751e-02 
       4.000000e+00      -7.180223e-02       7.179751e-02 
       4.200000e+00      -7.180178e-02      -7.181746e-02 
[...]
POINT_DATA       800 
VECTORS Displacements float
       4.25238841e-24      -2.77555756e-17       0.00000000e+00 
       2.75996267e-23       0.00000000e+00       0.00000000e+00 
      -4.25238841e-24       2.77555756e-17       0.00000000e+00 
      -2.75996267e-23       0.00000000e+00       0.00000000e+00 
      -9.59114682e-09       1.36454384e-08      -2.69845676e-08 
      -2.91248912e-08       1.36454371e-08      -2.69845327e-08 
       9.50683285e-09       1.36454074e-08      -2.69845378e-08 
       2.90405772e-08       1.36454087e-08      -2.69845728e-08 
      -9.59114682e-09       1.36454384e-08      -2.69845676e-08 
      -2.91248912e-08       1.36454371e-08      -2.69845327e-08 
       9.50683285e-09       1.36454074e-08      -2.69845378e-08 
       2.90405772e-08       1.36454087e-08      -2.69845728e-08 
      -1.90057174e-08       5.42307678e-08      -1.07259255e-07 
      -5.76951920e-08       5.42307626e-08      -1.07259180e-07 
       1.88369192e-08       5.42307082e-08      -1.07259200e-07 
       5.75263938e-08       5.42307134e-08      -1.07259275e-07 
      -1.90057174e-08       5.42307678e-08      -1.07259255e-07 
      -5.76951920e-08       5.42307626e-08      -1.07259180e-07 
       1.88369192e-08       5.42307082e-08      -1.07259200e-07 
       5.75263938e-08       5.42307134e-08      -1.07259275e-07 
      -2.82437105e-08       1.21229558e-07      -2.39805587e-07 
      -8.57109010e-08       1.21229546e-07      -2.39805467e-07 
       2.79902609e-08       1.21229472e-07      -2.39805512e-07 
       8.54574514e-08       1.21229483e-07      -2.39805632e-07 
      -2.82437105e-08       1.21229558e-07      -2.39805587e-07 
      -8.57109010e-08       1.21229546e-07      -2.39805467e-07 
       2.79902609e-08       1.21229472e-07      -2.39805512e-07 
       8.54574514e-08       1.21229483e-07      -2.39805632e-07 
      -3.73051237e-08       2.14115377e-07      -4.23605089e-07 
      -1.13172016e-07       2.14115357e-07      -4.23604920e-07 
       3.69668594e-08       2.14115268e-07      -4.23604998e-07 
       1.12833752e-07       2.14115288e-07      -4.23605167e-07 
      -3.73051237e-08       2.14115377e-07      -4.23605089e-07 
      -1.13172016e-07       2.14115357e-07      -4.23604920e-07 
       3.69668594e-08       2.14115268e-07      -4.23604998e-07 
       1.12833752e-07       2.14115288e-07      -4.23605167e-07 
      -4.61899563e-08       3.32361797e-07      -6.57639286e-07 
      -1.40078536e-07       3.32361766e-07      -6.57639063e-07 
       4.57667162e-08       3.32361665e-07      -6.57639183e-07 
       1.39655296e-07       3.32361695e-07      -6.57639406e-07 
      -4.61899563e-08       3.32361797e-07      -6.57639286e-07 
      -1.40078536e-07       3.32361766e-07      -6.57639063e-07 
       4.57667162e-08       3.32361665e-07      -6.57639183e-07 
       1.39655296e-07       3.32361695e-07      -6.57639406e-07 
      -5.48982060e-08       4.75442385e-07      -9.40889702e-07 
      -1.66430460e-07       4.75442341e-07      -9.40889422e-07 
       5.43898331e-08       4.75442233e-07      -9.40889592e-07 
       1.65922087e-07       4.75442276e-07      -9.40889872e-07 
      -5.48982060e-08       4.75442385e-07      -9.40889702e-07 
      -1.66430460e-07       4.75442341e-07      -9.40889422e-07 
       5.43898331e-08       4.75442233e-07      -9.40889592e-07 
       1.65922087e-07       4.75442276e-07      -9.40889872e-07 
      -6.34298714e-08       6.42830711e-07      -1.27233786e-06 
      -1.92227784e-07       6.42830653e-07      -1.27233752e-06 
       6.28362120e-08       6.42830541e-07      -1.27233775e-06 
       1.91634125e-07       6.42830599e-07      -1.27233809e-06 
      -6.34298714e-08       6.42830711e-07      -1.27233786e-06 
      -1.92227784e-07       6.42830653e-07      -1.27233752e-06 
       6.28362120e-08       6.42830541e-07      -1.27233775e-06 
       1.91634125e-07       6.42830599e-07      -1.27233809e-06 
      -7.17849509e-08       8.34000346e-07      -1.65096529e-06 
      -2.17470509e-07       8.34000272e-07      -1.65096489e-06 
       7.11058541e-08       8.34000159e-07      -1.65096518e-06 
       2.16791412e-07       8.34000233e-07      -1.65096558e-06 
      -7.17849509e-08       8.34000346e-07      -1.65096529e-06 
      -2.17470509e-07       8.34000272e-07      -1.65096489e-06 
       7.11058541e-08       8.34000159e-07      -1.65096518e-06 
       2.16791412e-07       8.34000233e-07      -1.65096558e-06 
      -7.99634425e-08       1.04842486e-06      -2.07575352e-06 
      -2.42158632e-07       1.04842477e-06      -2.07575305e-06 
       7.91987613e-08       1.04842466e-06      -2.07575341e-06 
       2.41393950e-07       1.04842475e-06      -2.07575388e-06 
      -7.99634425e-08       1.04842486e-06      -2.07575352e-06 
      -2.42158632e-07       1.04842477e-06      -2.07575305e-06 
       7.91987613e-08       1.04842466e-06      -2.07575341e-06 
       2.41393950e-07       1.04842475e-06      -2.07575388e-06 
      -8.79653455e-08       1.28557782e-06      -2.54568407e-06 
      -2.66292151e-07       1.28557771e-06      -2.54568352e-06 
       8.71149348e-08       1.28557760e-06      -2.54568396e-06 
       2.65441741e-07       1.28557771e-06      -2.54568450e-06 
      -8.79653455e-08       1.28557782e-06      -2.54568407e-06 
      -2.66292151e-07       1.28557771e-06      -2.54568352e-06 
       8.71149348e-08       1.28557760e-06      -2.54568396e-06 
       2.65441741e-07       1.28557771e-06      -2.54568450e-06 
      -9.57857189e-08       1.54494231e-06      -3.05975700e-06 
      -2.89886562e-07       1.54494218e-06      -3.05975640e-06 
       9.48783616e-08       1.54494210e-06      -3.05975691e-06 
       2.88979205e-07       1.54494223e-06      -3.05975752e-06 
      -9.57857189e-08       1.54494231e-06      -3.05975700e-06 
      -2.89886562e-07       1.54494218e-06      -3.05975640e-06 
       9.48783616e-08       1.54494210e-06      -3.05975691e-06 
       2.88979205e-07       1.54494223e-06      -3.05975752e-06 
      -1.03447873e-07       1.82603907e-06      -3.61704393e-06 
      -3.12985269e-07       1.82603892e-06      -3.61704326e-06 
       1.02483192e-07       1.82603886e-06      -3.61704387e-06 
       3.12020588e-07       1.82603901e-06      -3.61704453e-06 
      -1.03447873e-07       1.82603907e-06      -3.61704393e-06 
      -3.12985269e-07       1.82603892e-06      -3.61704326e-06 
       1.02483192e-07       1.82603886e-06      -3.61704387e-06 
       3.12020588e-07       1.82603901e-06      -3.61704453e-06 
      -1.10951805e-07       2.12839810e-06      -4.21663366e-06 
      -3.35588269e-07       2.12839793e-06      -4.21663293e-06 
       1.09929428e-07       2.12839789e-06      -4.21663362e-06 
       3.34565892e-07       2.12839807e-06      -4.21663435e-06 
      -1.10951805e-07       2.12839810e-06      -4.21663366e-06 
      -3.35588269e-07       2.12839793e-06      -4.21663293e-06 
       1.09929428e-07       2.12839789e-06      -4.21663362e-06 
       3.34565892e-07       2.12839807e-06      -4.21663435e-06 
      -1.18297509e-07       2.45154943e-06      -4.85761499e-06 
      -3.57695555e-07       2.45154923e-06      -4.85761420e-06 
       1.17217076e-07       2.45154922e-06      -4.85761498e-06 
       3.56615122e-07       2.45154942e-06      -4.85761578e-06 
      -1.18297509e-07       2.45154943e-06      -4.85761499e-06 
      -3.57695555e-07       2.45154923e-06      -4.85761420e-06 
       1.17217076e-07       2.45154922e-06      -4.85761498e-06 
       3.56615122e-07       2.45154942e-06      -4.85761578e-06 
      -1.25484982e-07       2.79502305e-06      -5.53907674e-06 
      -3.79307126e-07       2.79502282e-06      -5.53907587e-06 
       1.24346139e-07       2.79502285e-06      -5.53907676e-06 
       3.78168283e-07       2.79502307e-06      -5.53907762e-06 
      -1.25484982e-07       2.79502305e-06      -5.53907674e-06 
      -3.79307126e-07       2.79502282e-06      -5.53907587e-06 
       1.24346139e-07       2.79502285e-06      -5.53907676e-06 
       3.78168283e-07       2.79502307e-06      -5.53907762e-06 
      -1.32514220e-07       3.15834898e-06      -6.26010771e-06 
      -4.00422977e-07       3.15834873e-06      -6.26010677e-06 
       1.31316620e-07       3.15834879e-06      -6.26010776e-06 
       3.99225377e-07       3.15834904e-06      -6.26010869e-06 
      -1.32514220e-07       3.15834898e-06      -6.26010771e-06 
      -4.00422977e-07       3.15834873e-06      -6.26010677e-06 
       1.31316620e-07       3.15834879e-06      -6.26010776e-06 
       3.99225377e-07       3.15834904e-06      -6.26010869e-06 
      -1.39385218e-07       3.54105723e-06      -7.01979670e-06 
      -4.21043103e-07       3.54105696e-06      -7.01979569e-06 
       1.38128525e-07       3.54105705e-06      -7.01979678e-06 
       4.19786410e-07       3.54105732e-06      -7.01979779e-06 
      -1.39385218e-07       3.54105723e-06      -7.01979670e-06 
      -4.21043103e-07       3.54105696e-06      -7.01979569e-06 
       1.38128525e-07       3.54105705e-06      -7.01979678e-06 
       4.19786410e-07       3.54105732e-06      -7.01979779e-06 
      -1.46097974e-07       3.94267782e-06      -7.81723252e-06 
      -4.41167501e-07       3.94267752e-06      -7.81723144e-06 
       1.44781857e-07       3.94267764e-06      -7.81723264e-06 
       4.39851385e-07       3.94267794e-06      -7.81723372e-06 
      -1.46097974e-07       3.94267782e-06      -7.81723252e-06 
      -4.41167501e-07       3.94267752e-06      -7.81723144e-06 
       1.44781857e-07       3.94267764e-06      -7.81723264e-06 
       4.39851385e-07       3.94267794e-06      -7.81723372e-06 
      -1.52652482e-07       4.36274075e-06      -8.65150399e-06 
      -4.60796167e-07       4.36274042e-06      -8.65150283e-06 
       1.51276620e-07       4.36274058e-06      -8.65150414e-06 
       4.59420305e-07       4.36274091e-06      -8.65150529e-06 
      -1.52652482e-07       4.36274075e-06      -8.65150399e-06 
      -4.60796167e-07       4.36274042e-06      -8.65150283e-06 
       1.51276620e-07       4.36274058e-06      -8.65150414e-06 
       4.59420305e-07       4.36274091e-06      -8.65150529e-06 
      -1.59048740e-07       4.80077604e-06      -9.52169990e-06 
      -4.79929098e-07       4.80077568e-06      -9.52169867e-06 
       1.57612818e-07       4.80077587e-06      -9.52170008e-06 
       4.78493176e-07       4.80077623e-06      -9.52170131e-06 
      -1.59048740e-07       4.80077604e-06      -9.52169990e-06 
      -4.79929098e-07       4.80077568e-06      -9.52169867e-06 
       1.57612818e-07       4.80077587e-06      -9.52170008e-06 
       4.78493177e-07       4.80077623e-06      -9.52170131e-06 
      -1.65285693e-07       5.25632314e-06      -1.04269271e-05 
      -4.98585527e-07       5.25632275e-06      -1.04269258e-05 
       1.63809794e-07       5.25632299e-06      -1.04269273e-05 
       4.97109629e-07       5.25632337e-06      -1.04269286e-05 
      -1.65285693e-07       5.25632314e-06      -1.04269271e-05 
      -4.98585527e-07       5.25632275e-06      -1.04269258e-05 
       1.63809794e-07       5.25632299e-06      -1.04269273e-05 
       4.97109629e-07       5.25632337e-06      -1.04269286e-05 
      -1.71382216e-07       5.72895892e-06      -1.13663629e-05 
      -5.16804338e-07       5.72895851e-06      -1.13663615e-05 
       1.69865892e-07       5.72895879e-06      -1.13663632e-05 
       5.15288015e-07       5.72895921e-06      -1.13663645e-05 
      -1.71382216e-07       5.72895892e-06      -1.13663629e-05 
      -5.16804338e-07       5.72895851e-06      -1.13663615e-05 
       1.69865892e-07       5.72895879e-06      -1.13663632e-05 
       5.15288015e-07       5.72895921e-06      -1.13663645e-05 
      -1.77338303e-07       6.21826954e-06      -1.23392016e-05 
      -5.34585526e-07       6.21826909e-06      -1.23392002e-05 
       1.75781118e-07       6.21826942e-06      -1.23392020e-05 
       5.33028341e-07       6.21826987e-06      -1.23392034e-05 
      -1.77338303e-07       6.21826954e-06      -1.23392016e-05 
      -5.34585526e-07       6.21826909e-06      -1.23392002e-05 
       1.75781118e-07       6.21826942e-06      -1.23392020e-05 
       5.33028341e-07       6.21826987e-06      -1.23392034e-05 
      -1.83153952e-07       6.72384110e-06      -1.33446377e-05 
      -5.51929087e-07       6.72384062e-06      -1.33446362e-05 
       1.81555474e-07       6.72384100e-06      -1.33446380e-05 
       5.50330609e-07       6.72384148e-06      -1.33446396e-05 
      -1.83153952e-07       6.72384110e-06      -1.33446377e-05 
      -5.51929087e-07       6.72384062e-06      -1.33446362e-05 
       1.81555474e-07       6.72384100e-06      -1.33446380e-05 
       5.50330609e-07       6.72384148e-06      -1.33446396e-05 
      -1.88829155e-07       7.24525974e-06      -1.43818654e-05 
      -5.68835015e-07       7.24525924e-06      -1.43818638e-05 
       1.87188967e-07       7.24525966e-06      -1.43818658e-05 
       5.67194827e-07       7.24526016e-06      -1.43818674e-05 
      -1.88829155e-07       7.24525974e-06      -1.43818654e-05 
      -5.68835015e-07       7.24525924e-06      -1.43818638e-05 
       1.87188967e-07       7.24525966e-06      -1.43818658e-05 
       5.67194827e-07       7.24526016e-06      -1.43818674e-05 
      -1.94363907e-07       7.78211159e-06      -1.54500792e-05 
      -5.85303304e-07       7.78211106e-06      -1.54500776e-05 
       1.92681604e-07       7.78211153e-06      -1.54500797e-05 
       5.83621000e-07       7.78211206e-06      -1.54500813e-05 
      -1.94363907e-07       7.78211159e-06      -1.54500792e-05 
      -5.85303304e-07       7.78211106e-06      -1.54500776e-05 
       1.92681604e-07       7.78211153e-06      -1.54500797e-05 
       5.83621000e-07       7.78211206e-06      -1.54500813e-05 
      -1.99758205e-07       8.33398278e-06      -1.65484734e-05 
      -6.01333949e-07       8.33398222e-06      -1.65484717e-05 
       1.98033389e-07       8.33398274e-06      -1.65484740e-05 
       5.99609133e-07       8.33398330e-06      -1.65484757e-05 
      -1.99758205e-07       8.33398278e-06      -1.65484734e-05 
      -6.01333949e-07       8.33398222e-06      -1.65484717e-05 
       1.98033389e-07       8.33398274e-06      -1.65484740e-05 
       5.99609133e-07       8.33398330e-06      -1.65484757e-05 
      -2.05012038e-07       8.90045944e-06      -1.76762425e-05 
      -6.16926943e-07       8.90045885e-06      -1.76762407e-05 
       2.03244328e-07       8.90045942e-06      -1.76762431e-05 
       6.15159232e-07       8.90046001e-06      -1.76762448e-05 
      -2.05012038e-07       8.90045944e-06      -1.76762425e-05 
      -6.16926943e-07       8.90045885e-06      -1.76762407e-05 
       2.03244328e-07       8.90045942e-06      -1.76762431e-05 
       6.15159232e-07       8.90046001e-06      -1.76762448e-05 
      -2.10125406e-07       9.48112771e-06      -1.88325807e-05 
      -6.32082284e-07       9.48112709e-06      -1.88325789e-05 
       2.08314423e-07       9.48112770e-06      -1.88325813e-05 
       6.30271302e-07       9.48112832e-06      -1.88325832e-05 
      -2.10125406e-07       9.48112771e-06      -1.88325807e-05 
      -6.32082284e-07       9.48112709e-06      -1.88325789e-05 
       2.08314423e-07       9.48112770e-06      -1.88325813e-05 
       6.30271302e-07       9.48112832e-06      -1.88325832e-05 
      -2.15098303e-07       1.00755737e-05      -2.00166825e-05 
      -6.46799965e-07       1.00755730e-05      -2.00166806e-05 
       2.13243684e-07       1.00755737e-05      -2.00166832e-05 
       6.44945347e-07       1.00755744e-05      -2.00166851e-05 
      -2.15098304e-07       1.00755737e-05      -2.00166825e-05 
      -6.46799966e-07       1.00755730e-05      -2.00166806e-05 
       2.13243684e-07       1.00755737e-05      -2.00166832e-05 
       6.44945346e-07       1.00755744e-05      -2.00166851e-05 
      -2.19932703e-07       1.06833929e-05      -2.12277599e-05 
      -6.61102129e-07       1.06833923e-05      -2.12277580e-05 
       2.18047852e-07       1.06833930e-05      -2.12277606e-05 
       6.59217277e-07       1.06833936e-05      -2.12277626e-05 
      -2.19932703e-07       1.06833929e-05      -2.12277599e-05 
      -6.61102129e-07       1.06833923e-05      -2.12277580e-05 
       2.18047852e-07       1.06833930e-05      -2.12277606e-05 
       6.59217277e-07       1.06833936e-05      -2.12277626e-05 
      -2.24644120e-07       1.13042182e-05      -2.24650946e-05 
      -6.75024229e-07       1.13042175e-05      -2.24650926e-05 
       2.22728604e-07       1.13042182e-05      -2.24650954e-05 
       6.73108712e-07       1.13042189e-05      -2.24650975e-05 
      -2.24644120e-07       1.13042182e-05      -2.24650946e-05 
      -6.75024229e-07       1.13042175e-05      -2.24650926e-05 
       2.22728604e-07       1.13042182e-05      -2.24650954e-05 
       6.73108712e-07       1.13042189e-05      -2.24650975e-05 
      -2.29232546e-07       1.19376914e-05      -2.37279855e-05 
      -6.88566260e-07       1.19376907e-05      -2.37279834e-05 
       2.27285947e-07       1.19376915e-05      -2.37279863e-05 
       6.86619660e-07       1.19376922e-05      -2.37279884e-05 
      -2.29232546e-07       1.19376914e-05      -2.37279855e-05 
      -6.88566260e-07       1.19376907e-05      -2.37279834e-05 
       2.27285947e-07       1.19376915e-05      -2.37279863e-05 
       6.86619660e-07       1.19376922e-05      -2.37279884e-05 
      -2.33697978e-07       1.25834546e-05      -2.50157314e-05 
      -7.01728218e-07       1.25834538e-05      -2.50157292e-05 
       2.31719882e-07       1.25834547e-05      -2.50157322e-05 
       6.99750122e-07       1.25834554e-05      -2.50157344e-05 
      -2.33697978e-07       1.25834546e-05      -2.50157314e-05 
      -7.01728218e-07       1.25834538e-05      -2.50157292e-05 
       2.31719882e-07       1.25834547e-05      -2.50157322e-05 
       6.99750122e-07       1.25834554e-05      -2.50157344e-05 
      -2.38040410e-07       1.32411497e-05      -2.63276311e-05 
      -7.14510096e-07       1.32411489e-05      -2.63276288e-05 
       2.36030420e-07       1.32411499e-05      -2.63276320e-05 
       7.12500107e-07       1.32411507e-05      -2.63276342e-05 
      -2.38040410e-07       1.32411497e-05      -2.63276311e-05 
      -7.14510096e-07       1.32411489e-05      -2.63276288e-05 
       2.36030420e-07       1.32411499e-05      -2.63276320e-05 
       7.12500107e-07       1.32411507e-05      -2.63276342e-05 
      -2.42259835e-07       1.39104188e-05      -2.76629834e-05 
      -7.26911890e-07       1.39104180e-05      -2.76629811e-05 
       2.40217566e-07       1.39104190e-05      -2.76629844e-05 
       7.24869620e-07       1.39104198e-05      -2.76629867e-05 
      -2.42259835e-07       1.39104188e-05      -2.76629834e-05 
      -7.26911890e-07       1.39104180e-05      -2.76629811e-05 
       2.40217566e-07       1.39104190e-05      -2.76629844e-05 
       7.24869620e-07       1.39104198e-05      -2.76629867e-05 
      -2.46356247e-07       1.45909039e-05      -2.90210873e-05 
      -7.38933592e-07       1.45909030e-05      -2.90210850e-05 
       2.44281323e-07       1.45909040e-05      -2.90210884e-05 
       7.36858667e-07       1.45909049e-05      -2.90210907e-05 
      -2.46356247e-07       1.45909039e-05      -2.90210873e-05 
      -7.38933592e-07       1.45909030e-05      -2.90210850e-05 
       2.44281323e-07       1.45909040e-05      -2.90210884e-05 
       7.36858667e-07       1.45909049e-05      -2.90210907e-05 
      -2.50329641e-07       1.52822468e-05      -3.04012416e-05 
      -7.50575195e-07       1.52822460e-05      -3.04012392e-05 
       2.48221700e-07       1.52822470e-05      -3.04012427e-05 
       7.48467255e-07       1.52822479e-05      -3.04012451e-05 
      -2.50329641e-07       1.52822468e-05      -3.04012416e-05 
      -7.50575195e-07       1.52822460e-05      -3.04012392e-05 