# vtk DataFile Version 2.0
./output/onsasExample_BladeCantileverBeamNoPitch_windVel3DDynamic 3D/onsasExample_BladeCantileverBeamNoPitch_windVel3DDynamic 3D_0106.vtk
ASCII
DATASET UNSTRUCTURED_GRID

POINTS 800 float
      -2.331019e-23      -7.180703e-02      -7.180703e-02 
       2.959156e-23       7.180703e-02      -7.180703e-02 
       2.331019e-23       7.180703e-02       7.180703e-02 
      -2.959156e-23      -7.180703e-02       7.180703e-02 
       2.000000e-01      -7.180702e-02      -7.180706e-02 
       2.000000e-01       7.180705e-02      -7.180706e-02 
       2.000000e-01       7.180705e-02       7.180701e-02 
       2.000000e-01      -7.180702e-02       7.180701e-02 
       2.000000e-01      -7.180702e-02      -7.180706e-02 
       2.000000e-01       7.180705e-02      -7.180706e-02 
       2.000000e-01       7.180705e-02       7.180701e-02 
       2.000000e-01      -7.180702e-02       7.180701e-02 
       4.000000e-01      -7.180698e-02      -7.180714e-02 
       3.999999e-01       7.180709e-02      -7.180714e-02 
       4.000000e-01       7.180709e-02       7.180693e-02 
       4.000001e-01      -7.180698e-02       7.180693e-02 
       4.000000e-01      -7.180698e-02      -7.180714e-02 
       3.999999e-01       7.180709e-02      -7.180714e-02 
       4.000000e-01       7.180709e-02       7.180693e-02 
       4.000001e-01      -7.180698e-02       7.180693e-02 
       6.000000e-01      -7.180691e-02      -7.180727e-02 
       5.999999e-01       7.180716e-02      -7.180727e-02 
       6.000000e-01       7.180716e-02       7.180680e-02 
       6.000001e-01      -7.180691e-02       7.180680e-02 
       6.000000e-01      -7.180691e-02      -7.180727e-02 
       5.999999e-01       7.180716e-02      -7.180727e-02 
       6.000000e-01       7.180716e-02       7.180680e-02 
       6.000001e-01      -7.180691e-02       7.180680e-02 
       8.000000e-01      -7.180682e-02      -7.180745e-02 
       7.999999e-01       7.180725e-02      -7.180745e-02 
       8.000000e-01       7.180725e-02       7.180662e-02 
       8.000001e-01      -7.180682e-02       7.180662e-02 
       8.000000e-01      -7.180682e-02      -7.180745e-02 
       7.999999e-01       7.180725e-02      -7.180745e-02 
       8.000000e-01       7.180725e-02       7.180662e-02 
       8.000001e-01      -7.180682e-02       7.180662e-02 
       1.000000e+00      -7.180670e-02      -7.180768e-02 
       9.999999e-01       7.180737e-02      -7.180768e-02 
       1.000000e+00       7.180737e-02       7.180639e-02 
       1.000000e+00      -7.180670e-02       7.180639e-02 
       1.000000e+00      -7.180670e-02      -7.180768e-02 
       9.999999e-01       7.180737e-02      -7.180768e-02 
       1.000000e+00       7.180737e-02       7.180639e-02 
       1.000000e+00      -7.180670e-02       7.180639e-02 
       1.200000e+00      -7.180655e-02      -7.180795e-02 
       1.200000e+00       7.180752e-02      -7.180795e-02 
       1.200000e+00       7.180752e-02       7.180611e-02 
       1.200000e+00      -7.180655e-02       7.180611e-02 
       1.200000e+00      -7.180655e-02      -7.180795e-02 
       1.200000e+00       7.180752e-02      -7.180795e-02 
       1.200000e+00       7.180752e-02       7.180611e-02 
       1.200000e+00      -7.180655e-02       7.180611e-02 
       1.400000e+00      -7.180638e-02      -7.180828e-02 
       1.400000e+00       7.180769e-02      -7.180828e-02 
       1.400000e+00       7.180769e-02       7.180579e-02 
       1.400000e+00      -7.180638e-02       7.180579e-02 
       1.400000e+00      -7.180638e-02      -7.180828e-02 
       1.400000e+00       7.180769e-02      -7.180828e-02 
       1.400000e+00       7.180769e-02       7.180579e-02 
       1.400000e+00      -7.180638e-02       7.180579e-02 
       1.600000e+00      -7.180619e-02      -7.180865e-02 
       1.600000e+00       7.180788e-02      -7.180865e-02 
       1.600000e+00       7.180788e-02       7.180542e-02 
       1.600000e+00      -7.180619e-02       7.180542e-02 
       1.600000e+00      -7.180619e-02      -7.180865e-02 
       1.600000e+00       7.180788e-02      -7.180865e-02 
       1.600000e+00       7.180788e-02       7.180542e-02 
       1.600000e+00      -7.180619e-02       7.180542e-02 
       1.800000e+00      -7.180597e-02      -7.180906e-02 
       1.800000e+00       7.180810e-02      -7.180906e-02 
       1.800000e+00       7.180810e-02       7.180500e-02 
       1.800000e+00      -7.180597e-02       7.180500e-02 
       1.800000e+00      -7.180597e-02      -7.180906e-02 
       1.800000e+00       7.180810e-02      -7.180906e-02 
       1.800000e+00       7.180810e-02       7.180500e-02 
       1.800000e+00      -7.180597e-02       7.180500e-02 
       2.000000e+00      -7.180573e-02      -7.180952e-02 
       2.000000e+00       7.180834e-02      -7.180952e-02 
       2.000000e+00       7.180834e-02       7.180454e-02 
       2.000000e+00      -7.180573e-02       7.180454e-02 
       2.000000e+00      -7.180573e-02      -7.180952e-02 
       2.000000e+00       7.180834e-02      -7.180952e-02 
       2.000000e+00       7.180834e-02       7.180454e-02 
       2.000000e+00      -7.180573e-02       7.180454e-02 
       2.200000e+00      -7.180546e-02      -7.181002e-02 
       2.200000e+00       7.180860e-02      -7.181002e-02 
       2.200000e+00       7.180860e-02       7.180404e-02 
       2.200000e+00      -7.180546e-02       7.180404e-02 
       2.200000e+00      -7.180546e-02      -7.181002e-02 
       2.200000e+00       7.180860e-02      -7.181002e-02 
       2.200000e+00       7.180860e-02       7.180404e-02 
       2.200000e+00      -7.180546e-02       7.180404e-02 
       2.400000e+00      -7.180518e-02      -7.181057e-02 
       2.400000e+00       7.180889e-02      -7.181057e-02 
       2.400000e+00       7.180889e-02       7.180350e-02 
       2.400000e+00      -7.180518e-02       7.180350e-02 
       2.400000e+00      -7.180518e-02      -7.181057e-02 
       2.400000e+00       7.180889e-02      -7.181057e-02 
       2.400000e+00       7.180889e-02       7.180350e-02 
       2.400000e+00      -7.180518e-02       7.180350e-02 
       2.600000e+00      -7.180487e-02      -7.181116e-02 
       2.600000e+00       7.180920e-02      -7.181116e-02 
       2.600000e+00       7.180920e-02       7.180291e-02 
       2.600000e+00      -7.180487e-02       7.180291e-02 
       2.600000e+00      -7.180487e-02      -7.181116e-02 
       2.600000e+00       7.180920e-02      -7.181116e-02 
       2.600000e+00       7.180920e-02       7.180291e-02 
       2.600000e+00      -7.180487e-02       7.180291e-02 
       2.800000e+00      -7.180454e-02      -7.181178e-02 
       2.800000e+00       7.180953e-02      -7.181178e-02 
       2.800000e+00       7.180953e-02       7.180228e-02 
       2.800000e+00      -7.180454e-02       7.180228e-02 
       2.800000e+00      -7.180454e-02      -7.181178e-02 
       2.800000e+00       7.180953e-02      -7.181178e-02 
       2.800000e+00       7.180953e-02       7.180228e-02 
       2.800000e+00      -7.180454e-02       7.180228e-02 
       3.000000e+00      -7.180419e-02      -7.181245e-02 
       3.000000e+00       7.180987e-02      -7.181245e-02 
       3.000000e+00       7.180987e-02       7.180162e-02 
       3.000000e+00      -7.180419e-02       7.180162e-02 
       3.000000e+00      -7.180419e-02      -7.181245e-02 
       3.000000e+00       7.180987e-02      -7.181245e-02 
       3.000000e+00       7.180987e-02       7.180162e-02 
       3.000000e+00      -7.180419e-02       7.180162e-02 
       3.200000e+00      -7.180382e-02      -7.181315e-02 
       3.200000e+00       7.181024e-02      -7.181315e-02 
       3.200000e+00       7.181024e-02       7.180091e-02 
       3.200000e+00      -7.180382e-02       7.180091e-02 
       3.200000e+00      -7.180382e-02      -7.181315e-02 
       3.200000e+00       7.181024e-02      -7.181315e-02 
       3.200000e+00       7.181024e-02       7.180091e-02 
       3.200000e+00      -7.180382e-02       7.180091e-02 
       3.400000e+00      -7.180343e-02      -7.181389e-02 
       3.400000e+00       7.181063e-02      -7.181389e-02 
       3.400000e+00       7.181063e-02       7.180017e-02 
       3.400000e+00      -7.180343e-02       7.180017e-02 
       3.400000e+00      -7.180343e-02      -7.181389e-02 
       3.400000e+00       7.181063e-02      -7.181389e-02 
       3.400000e+00       7.181063e-02       7.180017e-02 
       3.400000e+00      -7.180343e-02       7.180017e-02 
       3.600000e+00      -7.180302e-02      -7.181467e-02 
       3.600000e+00       7.181104e-02      -7.181467e-02 
       3.600000e+00       7.181104e-02       7.179939e-02 
       3.600000e+00      -7.180302e-02       7.179939e-02 
       3.600000e+00      -7.180302e-02      -7.181467e-02 
       3.600000e+00       7.181104e-02      -7.181467e-02 
       3.600000e+00       7.181104e-02       7.179939e-02 
       3.600000e+00      -7.180302e-02       7.179939e-02 
       3.800000e+00      -7.180260e-02      -7.181549e-02 
       3.800000e+00       7.181147e-02      -7.181549e-02 
       3.800000e+00       7.181147e-02       7.179858e-02 
       3.800000e+00      -7.180260e-02       7.179858e-02 
       3.800000e+00      -7.180260e-02      -7.181549e-02 
       3.800000e+00       7.181147e-02      -7.181549e-02 
       3.800000e+00       7.181147e-02       7.179858e-02 
       3.800000e+00      -7.180260e-02       7.179858e-02 
       4.000000e+00      -7.180215e-02      -7.181634e-02 
       4.000000e+00       7.181192e-02      -7.181634e-02 
       4.000000e+00       7.181192e-02       7.179773e-02 
       4.000000e+00      -7.180215e-02       7.179773e-02 
       4.000000e+00      -7.180215e-02      -7.181634e-02 
       4.000000e+00       7.181192e-02      -7.181634e-02 
       4.000000e+00       7.181192e-02       7.179773e-02 
       4.000000e+00      -7.180215e-02       7.179773e-02 
       4.200000e+00      -7.180169e-02      -7.181722e-02 
[...]
POINT_DATA       800 
VECTORS Displacements float
      -2.33101923e-23      -1.38777878e-17       0.00000000e+00 
       2.95915622e-23       1.38777878e-17       0.00000000e+00 
       2.33101923e-23       1.38777878e-17       0.00000000e+00 
      -2.95915622e-23      -1.38777878e-17       0.00000000e+00 
      -9.01738900e-09       1.38548989e-08      -2.63970674e-08 
      -2.88518516e-08       1.38548975e-08      -2.63970343e-08 
       8.93776581e-09       1.38548697e-08      -2.63970393e-08 
       2.87722284e-08       1.38548710e-08      -2.63970723e-08 
      -9.01738900e-09       1.38548989e-08      -2.63970674e-08 
      -2.88518516e-08       1.38548975e-08      -2.63970343e-08 
       8.93776581e-09       1.38548697e-08      -2.63970393e-08 
       2.87722284e-08       1.38548710e-08      -2.63970723e-08 
      -1.78633682e-08       5.50680669e-08      -1.04918309e-07 
      -5.71536927e-08       5.50680616e-08      -1.04918238e-07 
       1.77039562e-08       5.50680109e-08      -1.04918257e-07 
       5.69942808e-08       5.50680163e-08      -1.04918328e-07 
      -1.78633682e-08       5.50680669e-08      -1.04918309e-07 
      -5.71536927e-08       5.50680616e-08      -1.04918238e-07 
       1.77039562e-08       5.50680109e-08      -1.04918257e-07 
       5.69942808e-08       5.50680163e-08      -1.04918328e-07 
      -2.65379358e-08       1.23112257e-07      -2.34558828e-07 
      -8.49055216e-08       1.23112245e-07      -2.34558714e-07 
       2.62985730e-08       1.23112176e-07      -2.34558757e-07 
       8.46661588e-08       1.23112188e-07      -2.34558871e-07 
      -2.65379358e-08       1.23112257e-07      -2.34558828e-07 
      -8.49055216e-08       1.23112245e-07      -2.34558714e-07 
       2.62985730e-08       1.23112176e-07      -2.34558757e-07 
       8.46661588e-08       1.23112188e-07      -2.34558871e-07 
      -3.50410905e-08       2.17460222e-07      -4.14313731e-07 
      -1.12107337e-07       2.17460201e-07      -4.14313570e-07 
       3.47216176e-08       2.17460119e-07      -4.14313645e-07 
       1.11787864e-07       2.17460139e-07      -4.14313806e-07 
      -3.50410905e-08       2.17460222e-07      -4.14313731e-07 
      -1.12107337e-07       2.17460201e-07      -4.14313570e-07 
       3.47216176e-08       2.17460119e-07      -4.14313645e-07 
       1.11787864e-07       2.17460139e-07      -4.14313806e-07 
      -4.33728305e-08       3.37584714e-07      -6.43178120e-07 
      -1.38759137e-07       3.37584683e-07      -6.43177908e-07 
       4.29730918e-08       3.37584591e-07      -6.43178023e-07 
       1.38359398e-07       3.37584622e-07      -6.43178235e-07 
      -4.33728305e-08       3.37584714e-07      -6.43178120e-07 
      -1.38759137e-07       3.37584683e-07      -6.43177908e-07 
       4.29730918e-08       3.37584591e-07      -6.43178023e-07 
       1.38359398e-07       3.37584622e-07      -6.43178235e-07 
      -5.15331544e-08       4.82958487e-07      -9.20147101e-07 
      -1.64860920e-07       4.82958442e-07      -9.20146834e-07 
       5.10529967e-08       4.82958345e-07      -9.20146996e-07 
       1.64380763e-07       4.82958390e-07      -9.20147264e-07 
      -5.15331544e-08       4.82958487e-07      -9.20147101e-07 
      -1.64860920e-07       4.82958442e-07      -9.20146834e-07 
       5.10529967e-08       4.82958345e-07      -9.20146996e-07 
       1.64380763e-07       4.82958390e-07      -9.20147264e-07 
      -5.95220602e-08       6.53054293e-07      -1.24421578e-06 
      -1.90412685e-07       6.53054233e-07      -1.24421545e-06 
       5.89613345e-08       6.53054134e-07      -1.24421567e-06 
       1.89851959e-07       6.53054193e-07      -1.24421600e-06 
      -5.95220602e-08       6.53054293e-07      -1.24421578e-06 
      -1.90412685e-07       6.53054233e-07      -1.24421545e-06 
       5.89613345e-08       6.53054134e-07      -1.24421567e-06 
       1.89851959e-07       6.53054193e-07      -1.24421600e-06 
      -6.73395468e-08       8.47344885e-07      -1.61437926e-06 
      -2.15414430e-07       8.47344808e-07      -1.61437887e-06 
       6.66981061e-08       8.47344710e-07      -1.61437914e-06 
       2.14772989e-07       8.47344787e-07      -1.61437953e-06 
      -6.73395468e-08       8.47344885e-07      -1.61437926e-06 
      -2.15414430e-07       8.47344808e-07      -1.61437887e-06 
       6.66981061e-08       8.47344710e-07      -1.61437914e-06 
       2.14772989e-07       8.47344787e-07      -1.61437953e-06 
      -7.49856124e-08       1.06530302e-06      -2.02963264e-06 
      -2.39866153e-07       1.06530292e-06      -2.02963218e-06 
       7.42633142e-08       1.06530283e-06      -2.02963253e-06 
       2.39143855e-07       1.06530292e-06      -2.02963298e-06 
      -7.49856124e-08       1.06530302e-06      -2.02963264e-06 
      -2.39866153e-07       1.06530292e-06      -2.02963218e-06 
       7.42633142e-08       1.06530283e-06      -2.02963253e-06 
       2.39143855e-07       1.06530292e-06      -2.02963298e-06 
      -8.24602553e-08       1.30640144e-06      -2.48897103e-06 
      -2.63767853e-07       1.30640132e-06      -2.48897051e-06 
       8.16569599e-08       1.30640124e-06      -2.48897092e-06 
       2.62964557e-07       1.30640135e-06      -2.48897144e-06 
      -8.24602551e-08       1.30640144e-06      -2.48897103e-06 
      -2.63767853e-07       1.30640132e-06      -2.48897051e-06 
       8.16569594e-08       1.30640124e-06      -2.48897092e-06 
       2.62964557e-07       1.30640135e-06      -2.48897144e-06 
      -8.97591130e-08       1.57012236e-06      -2.99140875e-06 
      -2.87135426e-07       1.57012223e-06      -2.99140817e-06 
       8.89037501e-08       1.57012216e-06      -2.99140866e-06 
       2.86280062e-07       1.57012230e-06      -2.99140924e-06 
      -8.97591130e-08       1.57012236e-06      -2.99140875e-06 
      -2.87135426e-07       1.57012223e-06      -2.99140817e-06 
       8.89037501e-08       1.57012216e-06      -2.99140866e-06 
       2.86280062e-07       1.57012230e-06      -2.99140924e-06 
      -9.69056697e-08       1.85598514e-06      -3.53603255e-06 
      -3.10012091e-07       1.85598499e-06      -3.53603191e-06 
       9.59978732e-08       1.85598495e-06      -3.53603248e-06 
       3.09104294e-07       1.85598511e-06      -3.53603312e-06 
      -9.69056697e-08       1.85598514e-06      -3.53603255e-06 
      -3.10012091e-07       1.85598499e-06      -3.53603191e-06 
       9.59978732e-08       1.85598495e-06      -3.53603248e-06 
       3.09104294e-07       1.85598511e-06      -3.53603312e-06 
      -1.03899921e-07       2.16351824e-06      -4.12194618e-06 
      -3.32397844e-07       2.16351805e-06      -4.12194547e-06 
       1.02939331e-07       2.16351804e-06      -4.12194613e-06 
       3.31437255e-07       2.16351822e-06      -4.12194684e-06 
      -1.03899921e-07       2.16351824e-06      -4.12194618e-06 
      -3.32397844e-07       2.16351805e-06      -4.12194547e-06 
       1.02939331e-07       2.16351804e-06      -4.12194613e-06 
       3.31437255e-07       2.16351822e-06      -4.12194684e-06 
      -1.10741864e-07       2.49225008e-06      -4.74825337e-06 
      -3.54292683e-07       2.49224988e-06      -4.74825261e-06 
       1.09728130e-07       2.49224990e-06      -4.74825336e-06 
       3.53278950e-07       2.49225010e-06      -4.74825412e-06 
      -1.10741864e-07       2.49225008e-06      -4.74825337e-06 
      -3.54292683e-07       2.49224988e-06      -4.74825261e-06 
       1.09728130e-07       2.49224990e-06      -4.74825336e-06 
       3.53278950e-07       2.49225010e-06      -4.74825412e-06 
      -1.17431493e-07       2.84170914e-06      -5.41405789e-06 
      -3.75696603e-07       2.84170891e-06      -5.41405705e-06 
       1.16364272e-07       2.84170896e-06      -5.41405789e-06 
       3.74629382e-07       2.84170919e-06      -5.41405873e-06 
      -1.17431493e-07       2.84170914e-06      -5.41405789e-06 
      -3.75696603e-07       2.84170891e-06      -5.41405705e-06 
       1.16364272e-07       2.84170896e-06      -5.41405789e-06 
       3.74629382e-07       2.84170919e-06      -5.41405873e-06 
      -1.23968806e-07       3.21142385e-06      -6.11846345e-06 
      -3.96609600e-07       3.21142359e-06      -6.11846255e-06 
       1.22847762e-07       3.21142368e-06      -6.11846349e-06 
       3.95488556e-07       3.21142394e-06      -6.11846439e-06 
      -1.23968806e-07       3.21142385e-06      -6.11846345e-06 
      -3.96609600e-07       3.21142359e-06      -6.11846255e-06 
       1.22847762e-07       3.21142368e-06      -6.11846349e-06 
       3.95488556e-07       3.21142394e-06      -6.11846439e-06 
      -1.30353798e-07       3.60092267e-06      -6.86057382e-06 
      -4.17031669e-07       3.60092239e-06      -6.86057285e-06 
       1.29178603e-07       3.60092251e-06      -6.86057389e-06 
       4.15856475e-07       3.60092279e-06      -6.86057486e-06 
      -1.30353798e-07       3.60092267e-06      -6.86057382e-06 
      -4.17031669e-07       3.60092239e-06      -6.86057285e-06 
       1.29178603e-07       3.60092251e-06      -6.86057389e-06 
       4.15856475e-07       3.60092279e-06      -6.86057486e-06 
      -1.36586464e-07       4.00973405e-06      -7.63949273e-06 
      -4.36962809e-07       4.00973374e-06      -7.63949169e-06 
       1.35356800e-07       4.00973389e-06      -7.63949283e-06 
       4.35733144e-07       4.00973421e-06      -7.63949387e-06 
      -1.36586464e-07       4.00973405e-06      -7.63949273e-06 
      -4.36962809e-07       4.00973374e-06      -7.63949169e-06 
       1.35356800e-07       4.00973389e-06      -7.63949283e-06 
       4.35733144e-07       4.00973421e-06      -7.63949387e-06 
      -1.42666803e-07       4.43738644e-06      -8.45432393e-06 
      -4.56403012e-07       4.43738610e-06      -8.45432282e-06 
       1.41382356e-07       4.43738629e-06      -8.45432406e-06 
       4.55118566e-07       4.43738663e-06      -8.45432518e-06 
      -1.42666803e-07       4.43738644e-06      -8.45432393e-06 
      -4.56403012e-07       4.43738610e-06      -8.45432282e-06 
       1.41382356e-07       4.43738629e-06      -8.45432406e-06 
       4.55118566e-07       4.43738663e-06      -8.45432518e-06 
      -1.48594809e-07       4.88340828e-06      -9.30417116e-06 
      -4.75352278e-07       4.88340791e-06      -9.30416997e-06 
       1.47255276e-07       4.88340814e-06      -9.30417132e-06 
       4.74012745e-07       4.88340851e-06      -9.30417251e-06 
      -1.48594809e-07       4.88340828e-06      -9.30417116e-06 
      -4.75352278e-07       4.88340791e-06      -9.30416997e-06 
       1.47255276e-07       4.88340814e-06      -9.30417132e-06 
       4.74012745e-07       4.88340851e-06      -9.30417251e-06 
      -1.54369844e-07       5.34733736e-06      -1.01881566e-05 
      -4.93829977e-07       5.34733696e-06      -1.01881553e-05 
       1.52995279e-07       5.34733723e-06      -1.01881568e-05 
       4.92455412e-07       5.34733764e-06      -1.01881580e-05 
      -1.54369844e-07       5.34733736e-06      -1.01881566e-05 
      -4.93829977e-07       5.34733696e-06      -1.01881553e-05 
       1.52995279e-07       5.34733723e-06      -1.01881568e-05 
       4.92455412e-07       5.34733764e-06      -1.01881580e-05 
      -1.60010779e-07       5.82874829e-06      -1.11054728e-05 
      -5.11874638e-07       5.82874786e-06      -1.11054715e-05 
       1.58600746e-07       5.82874818e-06      -1.11054731e-05 
       5.10464606e-07       5.82874861e-06      -1.11054744e-05 
      -1.60010779e-07       5.82874829e-06      -1.11054728e-05 
      -5.11874638e-07       5.82874786e-06      -1.11054715e-05 
       1.58600746e-07       5.82874818e-06      -1.11054731e-05 
       5.10464606e-07       5.82874861e-06      -1.11054744e-05 
      -1.65517607e-07       6.32722475e-06      -1.20553296e-05 
      -5.29486255e-07       6.32722429e-06      -1.20553282e-05 
       1.64071684e-07       6.32722466e-06      -1.20553299e-05 
       5.28040331e-07       6.32722512e-06      -1.20553313e-05 
      -1.65517607e-07       6.32722475e-06      -1.20553296e-05 
      -5.29486255e-07       6.32722429e-06      -1.20553282e-05 
       1.64071684e-07       6.32722466e-06      -1.20553299e-05 
       5.28040331e-07       6.32722512e-06      -1.20553313e-05 
      -1.70890326e-07       6.84235045e-06      -1.30369364e-05 
      -5.46664825e-07       6.84234995e-06      -1.30369349e-05 
       1.69408096e-07       6.84235037e-06      -1.30369367e-05 
       5.45182594e-07       6.84235086e-06      -1.30369382e-05 
      -1.70890326e-07       6.84235045e-06      -1.30369364e-05 
      -5.46664825e-07       6.84234995e-06      -1.30369349e-05 
       1.69408096e-07       6.84235037e-06      -1.30369367e-05 
       5.45182594e-07       6.84235086e-06      -1.30369382e-05 
      -1.76128929e-07       7.37370907e-06      -1.40495028e-05 
      -5.63410341e-07       7.37370854e-06      -1.40495013e-05 
       1.74609987e-07       7.37370901e-06      -1.40495032e-05 
       5.61891399e-07       7.37370953e-06      -1.40495047e-05 
      -1.76128929e-07       7.37370907e-06      -1.40495028e-05 
      -5.63410341e-07       7.37370854e-06      -1.40495013e-05 
       1.74609987e-07       7.37370901e-06      -1.40495032e-05 
       5.61891399e-07       7.37370953e-06      -1.40495047e-05 
      -1.81233411e-07       7.92088430e-06      -1.50922384e-05 
      -5.79722799e-07       7.92088375e-06      -1.50922368e-05 
       1.79677364e-07       7.92088426e-06      -1.50922388e-05 
       5.78166751e-07       7.92088482e-06      -1.50922404e-05 
      -1.81233411e-07       7.92088430e-06      -1.50922384e-05 
      -5.79722799e-07       7.92088375e-06      -1.50922368e-05 
       1.79677364e-07       7.92088426e-06      -1.50922388e-05 
       5.78166751e-07       7.92088482e-06      -1.50922404e-05 
      -1.86203768e-07       8.48345985e-06      -1.61643529e-05 
      -5.95602192e-07       8.48345927e-06      -1.61643512e-05 
       1.84610231e-07       8.48345983e-06      -1.61643533e-05 
       5.94008656e-07       8.48346042e-06      -1.61643550e-05 
      -1.86203768e-07       8.48345985e-06      -1.61643529e-05 
      -5.95602192e-07       8.48345927e-06      -1.61643512e-05 
       1.84610231e-07       8.48345983e-06      -1.61643533e-05 
       5.94008656e-07       8.48346042e-06      -1.61643550e-05 
      -1.91039993e-07       9.06101941e-06      -1.72650557e-05 
      -6.11048517e-07       9.06101879e-06      -1.72650540e-05 
       1.89408594e-07       9.06101940e-06      -1.72650562e-05 
       6.09417118e-07       9.06102002e-06      -1.72650579e-05 
      -1.91039993e-07       9.06101941e-06      -1.72650557e-05 
      -6.11048517e-07       9.06101879e-06      -1.72650540e-05 
       1.89408594e-07       9.06101940e-06      -1.72650562e-05 
       6.09417118e-07       9.06102002e-06      -1.72650579e-05 
      -1.95742081e-07       9.65314666e-06      -1.83935565e-05 
      -6.26061767e-07       9.65314601e-06      -1.83935547e-05 
       1.94072457e-07       9.65314667e-06      -1.83935571e-05 
       6.24392142e-07       9.65314732e-06      -1.83935589e-05 
      -1.95742081e-07       9.65314666e-06      -1.83935565e-05 
      -6.26061767e-07       9.65314601e-06      -1.83935547e-05 
       1.94072457e-07       9.65314667e-06      -1.83935571e-05 
       6.24392142e-07       9.65314732e-06      -1.83935589e-05 
      -2.00310029e-07       1.02594253e-05      -1.95490649e-05 
      -6.40641939e-07       1.02594246e-05      -1.95490630e-05 
       1.98601826e-07       1.02594253e-05      -1.95490655e-05 
       6.38933736e-07       1.02594260e-05      -1.95490673e-05 
      -2.00310029e-07       1.02594253e-05      -1.95490649e-05 
      -6.40641939e-07       1.02594246e-05      -1.95490630e-05 
       1.98601826e-07       1.02594253e-05      -1.95490655e-05 
       6.38933735e-07       1.02594260e-05      -1.95490673e-05 
      -2.04746146e-07       1.08794482e-05      -2.07308082e-05 
      -6.54811179e-07       1.08794475e-05      -2.07308063e-05 
       2.03012550e-07       1.08794483e-05      -2.07308088e-05 
       6.53077582e-07       1.08794490e-05      -2.07308108e-05 
      -2.04746146e-07       1.08794482e-05      -2.07308082e-05 
      -6.54811179e-07       1.08794475e-05      -2.07308063e-05 
       2.03012550e-07       1.08794483e-05      -2.07308088e-05 
       6.53077582e-07       1.08794490e-05      -2.07308108e-05 
      -2.09065783e-07       1.15128451e-05      -2.19380832e-05 
      -6.68604458e-07       1.15128443e-05      -2.19380812e-05 
       2.07306375e-07       1.15128452e-05      -2.19380838e-05 
       6.66845049e-07       1.15128459e-05      -2.19380858e-05 
      -2.09065783e-07       1.15128451e-05      -2.19380832e-05 
      -6.68604458e-07       1.15128443e-05      -2.19380812e-05 
       2.07306375e-07       1.15128452e-05      -2.19380838e-05 
       6.66845049e-07       1.15128459e-05      -2.19380858e-05 
      -2.13268934e-07       1.21592544e-05      -2.31702034e-05 
      -6.82021769e-07       1.21592536e-05      -2.31702014e-05 
       2.11483306e-07       1.21592545e-05      -2.31702042e-05 
       6.80236141e-07       1.21592553e-05      -2.31702062e-05 
      -2.13268934e-07       1.21592544e-05      -2.31702034e-05 
      -6.82021769e-07       1.21592536e-05      -2.31702014e-05 
       2.11483306e-07       1.21592545e-05      -2.31702042e-05 
       6.80236141e-07       1.21592553e-05      -2.31702062e-05 
      -2.17355592e-07       1.28183149e-05      -2.44264826e-05 
      -6.95063108e-07       1.28183141e-05      -2.44264805e-05 
       2.15543349e-07       1.28183150e-05      -2.44264834e-05 
       6.93250864e-07       1.28183158e-05      -2.44264855e-05 
      -2.17355592e-07       1.28183149e-05      -2.44264826e-05 
      -6.95063108e-07       1.28183141e-05      -2.44264805e-05 
       2.15543349e-07       1.28183150e-05      -2.44264834e-05 
       6.93250864e-07       1.28183158e-05      -2.44264855e-05 
      -2.21325754e-07       1.34896652e-05      -2.57062344e-05 
      -7.07728469e-07       1.34896644e-05      -2.57062322e-05 
       2.19486507e-07       1.34896654e-05      -2.57062352e-05 
       7.05889223e-07       1.34896662e-05      -2.57062374e-05 
      -2.21325754e-07       1.34896652e-05      -2.57062344e-05 
      -7.07728469e-07       1.34896644e-05      -2.57062322e-05 
       2.19486507e-07       1.34896654e-05      -2.57062352e-05 
       7.05889223e-07       1.34896662e-05      -2.57062374e-05 
      -2.25179412e-07       1.41729440e-05      -2.70087723e-05 
      -7.20017846e-07       1.41729431e-05      -2.70087701e-05 
       2.23312788e-07       1.41729441e-05      -2.70087732e-05 
       7.18151223e-07       1.41729450e-05      -2.70087754e-05 
      -2.25179412e-07       1.41729440e-05      -2.70087723e-05 
      -7.20017846e-07       1.41729431e-05      -2.70087701e-05 
       2.23312788e-07       1.41729441e-05      -2.70087732e-05 
       7.18151223e-07       1.41729450e-05      -2.70087754e-05 
      -2.28916561e-07       1.48677898e-05      -2.83334101e-05 
      -7.31931234e-07       1.48677889e-05      -2.83334078e-05 
       2.27022198e-07       1.48677900e-05      -2.83334110e-05 
       7.30036871e-07       1.48677908e-05      -2.83334133e-05 
      -2.28916561e-07       1.48677898e-05      -2.83334101e-05 
      -7.31931234e-07       1.48677889e-05      -2.83334078e-05 
       2.27022198e-07       1.48677900e-05      -2.83334110e-05 
       7.30036871e-07       1.48677908e-05      -2.83334133e-05 
      -2.32537195e-07       1.55738413e-05      -2.96794614e-05 
      -7.43468625e-07       1.55738404e-05      -2.96794590e-05 
       2.30614742e-07       1.55738415e-05      -2.96794623e-05 
       7.41546173e-07       1.55738424e-05      -2.96794647e-05 
      -2.32537195e-07       1.55738413e-05      -2.96794614e-05 
      -7.43468625e-07       1.55738404e-05      -2.96794590e-05 