# vtk DataFile Version 2.0
./output/onsasExample_BladeCantileverBeamNoPitch_windVel3DDynamic 3D/onsasExample_BladeCantileverBeamNoPitch_windVel3DDynamic 3D_0024.vtk
ASCII
DATASET UNSTRUCTURED_GRID

POINTS 800 float
       1.307741e-24      -7.180703e-02      -7.180703e-02 
       1.544575e-23       7.180703e-02      -7.180703e-02 
      -1.307741e-24       7.180703e-02       7.180703e-02 
      -1.544575e-23      -7.180703e-02       7.180703e-02 
       2.000000e-01      -7.180702e-02      -7.180706e-02 
       2.000000e-01       7.180705e-02      -7.180706e-02 
       2.000000e-01       7.180705e-02       7.180701e-02 
       2.000000e-01      -7.180702e-02       7.180701e-02 
       2.000000e-01      -7.180702e-02      -7.180706e-02 
       2.000000e-01       7.180705e-02      -7.180706e-02 
       2.000000e-01       7.180705e-02       7.180701e-02 
       2.000000e-01      -7.180702e-02       7.180701e-02 
       4.000000e-01      -7.180698e-02      -7.180713e-02 
       3.999999e-01       7.180709e-02      -7.180713e-02 
       4.000000e-01       7.180709e-02       7.180694e-02 
       4.000001e-01      -7.180698e-02       7.180694e-02 
       4.000000e-01      -7.180698e-02      -7.180713e-02 
       3.999999e-01       7.180709e-02      -7.180713e-02 
       4.000000e-01       7.180709e-02       7.180694e-02 
       4.000001e-01      -7.180698e-02       7.180694e-02 
       6.000000e-01      -7.180691e-02      -7.180724e-02 
       5.999999e-01       7.180715e-02      -7.180724e-02 
       6.000000e-01       7.180715e-02       7.180682e-02 
       6.000001e-01      -7.180691e-02       7.180682e-02 
       6.000000e-01      -7.180691e-02      -7.180724e-02 
       5.999999e-01       7.180715e-02      -7.180724e-02 
       6.000000e-01       7.180715e-02       7.180682e-02 
       6.000001e-01      -7.180691e-02       7.180682e-02 
       8.000000e-01      -7.180682e-02      -7.180741e-02 
       7.999999e-01       7.180725e-02      -7.180741e-02 
       8.000000e-01       7.180725e-02       7.180666e-02 
       8.000001e-01      -7.180682e-02       7.180666e-02 
       8.000000e-01      -7.180682e-02      -7.180741e-02 
       7.999999e-01       7.180725e-02      -7.180741e-02 
       8.000000e-01       7.180725e-02       7.180666e-02 
       8.000001e-01      -7.180682e-02       7.180666e-02 
       1.000000e+00      -7.180670e-02      -7.180761e-02 
       9.999999e-01       7.180737e-02      -7.180761e-02 
       1.000000e+00       7.180737e-02       7.180646e-02 
       1.000000e+00      -7.180670e-02       7.180646e-02 
       1.000000e+00      -7.180670e-02      -7.180761e-02 
       9.999999e-01       7.180737e-02      -7.180761e-02 
       1.000000e+00       7.180737e-02       7.180646e-02 
       1.000000e+00      -7.180670e-02       7.180646e-02 
       1.200000e+00      -7.180656e-02      -7.180786e-02 
       1.200000e+00       7.180751e-02      -7.180786e-02 
       1.200000e+00       7.180751e-02       7.180621e-02 
       1.200000e+00      -7.180656e-02       7.180621e-02 
       1.200000e+00      -7.180656e-02      -7.180786e-02 
       1.200000e+00       7.180751e-02      -7.180786e-02 
       1.200000e+00       7.180751e-02       7.180621e-02 
       1.200000e+00      -7.180656e-02       7.180621e-02 
       1.400000e+00      -7.180639e-02      -7.180815e-02 
       1.400000e+00       7.180768e-02      -7.180815e-02 
       1.400000e+00       7.180768e-02       7.180592e-02 
       1.400000e+00      -7.180639e-02       7.180592e-02 
       1.400000e+00      -7.180639e-02      -7.180815e-02 
       1.400000e+00       7.180768e-02      -7.180815e-02 
       1.400000e+00       7.180768e-02       7.180592e-02 
       1.400000e+00      -7.180639e-02       7.180592e-02 
       1.600000e+00      -7.180620e-02      -7.180848e-02 
       1.600000e+00       7.180787e-02      -7.180848e-02 
       1.600000e+00       7.180787e-02       7.180559e-02 
       1.600000e+00      -7.180620e-02       7.180559e-02 
       1.600000e+00      -7.180620e-02      -7.180848e-02 
       1.600000e+00       7.180787e-02      -7.180848e-02 
       1.600000e+00       7.180787e-02       7.180559e-02 
       1.600000e+00      -7.180620e-02       7.180559e-02 
       1.800000e+00      -7.180598e-02      -7.180885e-02 
       1.800000e+00       7.180808e-02      -7.180885e-02 
       1.800000e+00       7.180808e-02       7.180521e-02 
       1.800000e+00      -7.180598e-02       7.180521e-02 
       1.800000e+00      -7.180598e-02      -7.180885e-02 
       1.800000e+00       7.180808e-02      -7.180885e-02 
       1.800000e+00       7.180808e-02       7.180521e-02 
       1.800000e+00      -7.180598e-02       7.180521e-02 
       2.000000e+00      -7.180575e-02      -7.180926e-02 
       2.000000e+00       7.180832e-02      -7.180926e-02 
       2.000000e+00       7.180832e-02       7.180480e-02 
       2.000000e+00      -7.180575e-02       7.180480e-02 
       2.000000e+00      -7.180575e-02      -7.180926e-02 
       2.000000e+00       7.180832e-02      -7.180926e-02 
       2.000000e+00       7.180832e-02       7.180480e-02 
       2.000000e+00      -7.180575e-02       7.180480e-02 
       2.200000e+00      -7.180549e-02      -7.180971e-02 
       2.200000e+00       7.180858e-02      -7.180971e-02 
       2.200000e+00       7.180858e-02       7.180435e-02 
       2.200000e+00      -7.180549e-02       7.180435e-02 
       2.200000e+00      -7.180549e-02      -7.180971e-02 
       2.200000e+00       7.180858e-02      -7.180971e-02 
       2.200000e+00       7.180858e-02       7.180435e-02 
       2.200000e+00      -7.180549e-02       7.180435e-02 
       2.400000e+00      -7.180521e-02      -7.181020e-02 
       2.400000e+00       7.180886e-02      -7.181020e-02 
       2.400000e+00       7.180886e-02       7.180387e-02 
       2.400000e+00      -7.180521e-02       7.180387e-02 
       2.400000e+00      -7.180521e-02      -7.181020e-02 
       2.400000e+00       7.180886e-02      -7.181020e-02 
       2.400000e+00       7.180886e-02       7.180387e-02 
       2.400000e+00      -7.180521e-02       7.180387e-02 
       2.600000e+00      -7.180490e-02      -7.181072e-02 
       2.600000e+00       7.180916e-02      -7.181072e-02 
       2.600000e+00       7.180916e-02       7.180335e-02 
       2.600000e+00      -7.180490e-02       7.180335e-02 
       2.600000e+00      -7.180490e-02      -7.181072e-02 
       2.600000e+00       7.180916e-02      -7.181072e-02 
       2.600000e+00       7.180916e-02       7.180335e-02 
       2.600000e+00      -7.180490e-02       7.180335e-02 
       2.800000e+00      -7.180458e-02      -7.181128e-02 
       2.800000e+00       7.180949e-02      -7.181128e-02 
       2.800000e+00       7.180949e-02       7.180279e-02 
       2.800000e+00      -7.180458e-02       7.180279e-02 
       2.800000e+00      -7.180458e-02      -7.181128e-02 
       2.800000e+00       7.180949e-02      -7.181128e-02 
       2.800000e+00       7.180949e-02       7.180279e-02 
       2.800000e+00      -7.180458e-02       7.180279e-02 
       3.000000e+00      -7.180424e-02      -7.181187e-02 
       3.000000e+00       7.180983e-02      -7.181187e-02 
       3.000000e+00       7.180983e-02       7.180219e-02 
       3.000000e+00      -7.180424e-02       7.180219e-02 
       3.000000e+00      -7.180424e-02      -7.181187e-02 
       3.000000e+00       7.180983e-02      -7.181187e-02 
       3.000000e+00       7.180983e-02       7.180219e-02 
       3.000000e+00      -7.180424e-02       7.180219e-02 
       3.200000e+00      -7.180387e-02      -7.181250e-02 
       3.200000e+00       7.181019e-02      -7.181250e-02 
       3.200000e+00       7.181019e-02       7.180157e-02 
       3.200000e+00      -7.180387e-02       7.180157e-02 
       3.200000e+00      -7.180387e-02      -7.181250e-02 
       3.200000e+00       7.181019e-02      -7.181250e-02 
       3.200000e+00       7.181019e-02       7.180157e-02 
       3.200000e+00      -7.180387e-02       7.180157e-02 
       3.400000e+00      -7.180349e-02      -7.181316e-02 
       3.400000e+00       7.181058e-02      -7.181316e-02 
       3.400000e+00       7.181058e-02       7.180091e-02 
       3.400000e+00      -7.180349e-02       7.180091e-02 
       3.400000e+00      -7.180349e-02      -7.181316e-02 
       3.400000e+00       7.181058e-02      -7.181316e-02 
       3.400000e+00       7.181058e-02       7.180091e-02 
       3.400000e+00      -7.180349e-02       7.180091e-02 
       3.600000e+00      -7.180309e-02      -7.181385e-02 
       3.600000e+00       7.181098e-02      -7.181385e-02 
       3.600000e+00       7.181098e-02       7.180021e-02 
       3.600000e+00      -7.180309e-02       7.180021e-02 
       3.600000e+00      -7.180309e-02      -7.181385e-02 
       3.600000e+00       7.181098e-02      -7.181385e-02 
       3.600000e+00       7.181098e-02       7.180021e-02 
       3.600000e+00      -7.180309e-02       7.180021e-02 
       3.800000e+00      -7.180267e-02      -7.181458e-02 
       3.800000e+00       7.181140e-02      -7.181458e-02 
       3.800000e+00       7.181140e-02       7.179949e-02 
       3.800000e+00      -7.180267e-02       7.179949e-02 
       3.800000e+00      -7.180267e-02      -7.181458e-02 
       3.800000e+00       7.181140e-02      -7.181458e-02 
       3.800000e+00       7.181140e-02       7.179949e-02 
       3.800000e+00      -7.180267e-02       7.179949e-02 
       4.000000e+00      -7.180223e-02      -7.181533e-02 
       4.000000e+00       7.181184e-02      -7.181533e-02 
       4.000000e+00       7.181184e-02       7.179873e-02 
       4.000000e+00      -7.180223e-02       7.179873e-02 
       4.000000e+00      -7.180223e-02      -7.181533e-02 
       4.000000e+00       7.181184e-02      -7.181533e-02 
       4.000000e+00       7.181184e-02       7.179873e-02 
       4.000000e+00      -7.180223e-02       7.179873e-02 
       4.200000e+00      -7.180177e-02      -7.181612e-02 
[...]
POINT_DATA       800 
VECTORS Displacements float
       1.30774087e-24      -1.38777878e-17       0.00000000e+00 
       1.54457533e-23       0.00000000e+00       0.00000000e+00 
      -1.30774087e-24       1.38777878e-17       0.00000000e+00 
      -1.54457533e-23       0.00000000e+00       0.00000000e+00 
      -7.24733121e-09       1.36588145e-08      -2.37320447e-08 
      -2.68002611e-08       1.36588132e-08      -2.37320183e-08 
       7.16784224e-09       1.36587914e-08      -2.37320223e-08 
       2.67207721e-08       1.36587927e-08      -2.37320487e-08 
      -7.24733121e-09       1.36588145e-08      -2.37320447e-08 
      -2.68002611e-08       1.36588132e-08      -2.37320183e-08 
       7.16784224e-09       1.36587914e-08      -2.37320223e-08 
       2.67207721e-08       1.36587927e-08      -2.37320487e-08 
      -1.43405240e-08       5.42841127e-08      -9.42906961e-08 
      -5.30681892e-08       5.42841075e-08      -9.42906387e-08 
       1.41814070e-08       5.42840683e-08      -9.42906545e-08 
       5.29090721e-08       5.42840735e-08      -9.42907118e-08 
      -1.43405240e-08       5.42841127e-08      -9.42906961e-08 
      -5.30681892e-08       5.42841075e-08      -9.42906387e-08 
       1.41814070e-08       5.42840683e-08      -9.42906545e-08 
       5.29090721e-08       5.42840735e-08      -9.42907118e-08 
      -2.12795770e-08       1.21349213e-07      -2.10719766e-07 
      -7.88037828e-08       1.21349201e-07      -2.10719673e-07 
       2.10406959e-08       1.21349149e-07      -2.10719708e-07 
       7.85649017e-08       1.21349160e-07      -2.10719801e-07 
      -2.12795770e-08       1.21349213e-07      -2.10719766e-07 
      -7.88037828e-08       1.21349201e-07      -2.10719673e-07 
       2.10406959e-08       1.21349149e-07      -2.10719708e-07 
       7.85649017e-08       1.21349160e-07      -2.10719801e-07 
      -2.80644891e-08       2.14327433e-07      -3.72063066e-07 
      -1.04007041e-07       2.14327413e-07      -3.72062934e-07 
       2.77457097e-08       2.14327351e-07      -3.72062995e-07 
       1.03688262e-07       2.14327371e-07      -3.72063126e-07 
      -2.80644891e-08       2.14327433e-07      -3.72063066e-07 
      -1.04007041e-07       2.14327413e-07      -3.72062934e-07 
       2.77457097e-08       2.14327351e-07      -3.72062995e-07 
       1.03688262e-07       2.14327371e-07      -3.72063126e-07 
      -3.46952582e-08       3.32692092e-07      -5.77364408e-07 
      -1.28677961e-07       3.32692061e-07      -5.77364234e-07 
       3.42964508e-08       3.32691993e-07      -5.77364326e-07 
       1.28279154e-07       3.32692024e-07      -5.77364501e-07 
      -3.46952582e-08       3.32692092e-07      -5.77364408e-07 
      -1.28677961e-07       3.32692061e-07      -5.77364234e-07 
       3.42964508e-08       3.32691993e-07      -5.77364326e-07 
       1.28279154e-07       3.32692024e-07      -5.77364501e-07 
      -4.11718837e-08       4.75916507e-07      -8.25667604e-07 
      -1.52816543e-07       4.75916463e-07      -8.25667384e-07 
       4.06929199e-08       4.75916394e-07      -8.25667514e-07 
       1.52337580e-07       4.75916437e-07      -8.25667735e-07 
      -4.11718837e-08       4.75916507e-07      -8.25667604e-07 
      -1.52816543e-07       4.75916463e-07      -8.25667384e-07 
       4.06929199e-08       4.75916394e-07      -8.25667514e-07 
       1.52337580e-07       4.75916437e-07      -8.25667735e-07 
      -4.74943638e-08       6.43473996e-07      -1.11601647e-06 
      -1.76422786e-07       6.43473939e-07      -1.11601620e-06 
       4.69351182e-08       6.43473870e-07      -1.11601637e-06 
       1.75863540e-07       6.43473928e-07      -1.11601664e-06 
      -4.74943638e-08       6.43473996e-07      -1.11601647e-06 
      -1.76422786e-07       6.43473939e-07      -1.11601620e-06 
       4.69351182e-08       6.43473870e-07      -1.11601637e-06 
       1.75863540e-07       6.43473928e-07      -1.11601664e-06 
      -5.36626972e-08       8.34837879e-07      -1.44745481e-06 
      -1.99496687e-07       8.34837805e-07      -1.44745448e-06 
       5.30230475e-08       8.34837740e-07      -1.44745471e-06 
       1.98857037e-07       8.34837814e-07      -1.44745503e-06 
      -5.36626972e-08       8.34837879e-07      -1.44745481e-06 
      -1.99496687e-07       8.34837805e-07      -1.44745448e-06 
       5.30230475e-08       8.34837740e-07      -1.44745471e-06 
       1.98857037e-07       8.34837814e-07      -1.44745503e-06 
      -5.96768819e-08       1.04948147e-06      -1.81902643e-06 
      -2.22038244e-07       1.04948138e-06      -1.81902606e-06 
       5.89567095e-08       1.04948132e-06      -1.81902633e-06 
       2.21318072e-07       1.04948141e-06      -1.81902671e-06 
      -5.96768819e-08       1.04948147e-06      -1.81902643e-06 
      -2.22038244e-07       1.04948138e-06      -1.81902606e-06 
       5.89567095e-08       1.04948132e-06      -1.81902633e-06 
       2.21318072e-07       1.04948141e-06      -1.81902671e-06 
      -6.55369174e-08       1.28687810e-06      -2.22977516e-06 
      -2.44047458e-07       1.28687798e-06      -2.22977473e-06 
       6.47361049e-08       1.28687793e-06      -2.22977506e-06 
       2.43246646e-07       1.28687805e-06      -2.22977550e-06 
      -6.55369174e-08       1.28687810e-06      -2.22977516e-06 
      -2.44047458e-07       1.28687798e-06      -2.22977473e-06 
       6.47361054e-08       1.28687793e-06      -2.22977506e-06 
       2.43246646e-07       1.28687805e-06      -2.22977550e-06 
      -7.12392030e-08       1.54651047e-06      -2.67876405e-06 
      -2.65540966e-07       1.54651034e-06      -2.67876357e-06 
       7.03856076e-08       1.54651031e-06      -2.67876396e-06 
       2.64687371e-07       1.54651045e-06      -2.67876444e-06 
      -7.12392030e-08       1.54651047e-06      -2.67876405e-06 
      -2.65540966e-07       1.54651034e-06      -2.67876357e-06 
       7.03856076e-08       1.54651031e-06      -2.67876396e-06 
       2.64687371e-07       1.54651045e-06      -2.67876444e-06 
      -7.68073760e-08       1.82789878e-06      -3.16513063e-06 
      -2.86562494e-07       1.82789863e-06      -3.16513009e-06 
       7.59006951e-08       1.82789862e-06      -3.16513055e-06 
       2.85655813e-07       1.82789878e-06      -3.16513108e-06 
      -7.68073760e-08       1.82789878e-06      -3.16513063e-06 
      -2.86562494e-07       1.82789863e-06      -3.16513009e-06 
       7.59006951e-08       1.82789862e-06      -3.16513055e-06 
       2.85655813e-07       1.82789878e-06      -3.16513108e-06 
      -8.22414346e-08       2.13057250e-06      -3.68803042e-06 
      -3.07112039e-07       2.13057232e-06      -3.68802983e-06 
       8.12813710e-08       2.13057234e-06      -3.68803036e-06 
       3.06151975e-07       2.13057252e-06      -3.68803094e-06 
      -8.22414346e-08       2.13057250e-06      -3.68803042e-06 
      -3.07112039e-07       2.13057232e-06      -3.68802983e-06 
       8.12813710e-08       2.13057234e-06      -3.68803036e-06 
       3.06151975e-07       2.13057252e-06      -3.68803094e-06 
      -8.75413741e-08       2.45406110e-06      -4.24661895e-06 
      -3.27189598e-07       2.45406090e-06      -4.24661831e-06 
       8.65276384e-08       2.45406095e-06      -4.24661890e-06 
       3.26175862e-07       2.45406115e-06      -4.24661954e-06 
      -8.75413741e-08       2.45406110e-06      -4.24661895e-06 
      -3.27189598e-07       2.45406090e-06      -4.24661831e-06 
       8.65276384e-08       2.45406095e-06      -4.24661890e-06 
       3.26175862e-07       2.45406115e-06      -4.24661954e-06 
      -9.27071926e-08       2.79789407e-06      -4.84005174e-06 
      -3.46795167e-07       2.79789384e-06      -4.84005104e-06 
       9.16395009e-08       2.79789392e-06      -4.84005171e-06 
       3.45727475e-07       2.79789415e-06      -4.84005241e-06 
      -9.27071926e-08       2.79789407e-06      -4.84005174e-06 
      -3.46795167e-07       2.79789384e-06      -4.84005104e-06 
       9.16395009e-08       2.79789392e-06      -4.84005171e-06 
       3.45727475e-07       2.79789415e-06      -4.84005241e-06 
      -9.77388859e-08       3.16160088e-06      -5.46748431e-06 
      -3.65928743e-07       3.16160063e-06      -5.46748355e-06 
       9.66169615e-08       3.16160074e-06      -5.46748430e-06 
       3.64806819e-07       3.16160099e-06      -5.46748505e-06 
      -9.77388859e-08       3.16160088e-06      -5.46748431e-06 
      -3.65928743e-07       3.16160063e-06      -5.46748355e-06 
       9.66169615e-08       3.16160074e-06      -5.46748430e-06 
       3.64806819e-07       3.16160099e-06      -5.46748505e-06 
      -1.02636450e-07       3.54471101e-06      -6.12807218e-06 
      -3.84590323e-07       3.54471073e-06      -6.12807137e-06 
       1.01460025e-07       3.54471088e-06      -6.12807219e-06 
       3.83413898e-07       3.54471115e-06      -6.12807300e-06 
      -1.02636450e-07       3.54471101e-06      -6.12807218e-06 
      -3.84590323e-07       3.54471073e-06      -6.12807137e-06 
       1.01460025e-07       3.54471088e-06      -6.12807219e-06 
       3.83413898e-07       3.54471115e-06      -6.12807300e-06 
      -1.07399882e-07       3.94675394e-06      -6.82097088e-06 
      -4.02779902e-07       3.94675364e-06      -6.82097001e-06 
       1.06168693e-07       3.94675381e-06      -6.82097091e-06 
       4.01548713e-07       3.94675412e-06      -6.82097178e-06 
      -1.07399882e-07       3.94675394e-06      -6.82097088e-06 
      -4.02779902e-07       3.94675364e-06      -6.82097001e-06 
       1.06168693e-07       3.94675381e-06      -6.82097091e-06 
       4.01548713e-07       3.94675412e-06      -6.82097178e-06 
      -1.12029179e-07       4.36725915e-06      -7.54533592e-06 
      -4.20497479e-07       4.36725882e-06      -7.54533499e-06 
       1.10742969e-07       4.36725902e-06      -7.54533597e-06 
       4.19211269e-07       4.36725936e-06      -7.54533690e-06 
      -1.12029179e-07       4.36725915e-06      -7.54533592e-06 
      -4.20497479e-07       4.36725882e-06      -7.54533499e-06 
       1.10742969e-07       4.36725902e-06      -7.54533597e-06 
       4.19211269e-07       4.36725936e-06      -7.54533690e-06 
      -1.16524338e-07       4.80575611e-06      -8.30032284e-06 
      -4.37743049e-07       4.80575575e-06      -8.30032184e-06 
       1.15182858e-07       4.80575599e-06      -8.30032291e-06 
       4.36401569e-07       4.80575635e-06      -8.30032390e-06 
      -1.16524337e-07       4.80575611e-06      -8.30032284e-06 
      -4.37743049e-07       4.80575575e-06      -8.30032184e-06 
       1.15182858e-07       4.80575599e-06      -8.30032291e-06 
       4.36401570e-07       4.80575635e-06      -8.30032390e-06 
      -1.20885655e-07       5.26178368e-06      -9.08510612e-06 
      -4.54537088e-07       5.26178330e-06      -9.08510507e-06 
       1.19508273e-07       5.26178358e-06      -9.08510622e-06 
       4.53159705e-07       5.26178397e-06      -9.08510727e-06 
      -1.20885655e-07       5.26178368e-06      -9.08510612e-06 
      -4.54537088e-07       5.26178330e-06      -9.08510507e-06 
       1.19508273e-07       5.26178358e-06      -9.08510622e-06 
       4.53159705e-07       5.26178397e-06      -9.08510727e-06 
      -1.25132171e-07       5.73491807e-06      -9.89893342e-06 
      -4.70918676e-07       5.73491766e-06      -9.89893232e-06 
       1.23718531e-07       5.73491799e-06      -9.89893355e-06 
       4.69505036e-07       5.73491840e-06      -9.89893465e-06 
      -1.25132171e-07       5.73491807e-06      -9.89893342e-06 
      -4.70918676e-07       5.73491766e-06      -9.89893232e-06 
       1.23718531e-07       5.73491799e-06      -9.89893355e-06 
       4.69505036e-07       5.73491840e-06      -9.89893465e-06 
      -1.29263878e-07       6.22474477e-06      -1.07410700e-05 
      -4.86887808e-07       6.22474432e-06      -1.07410688e-05 
       1.27813637e-07       6.22474470e-06      -1.07410701e-05 
       4.85437567e-07       6.22474514e-06      -1.07410713e-05 
      -1.29263878e-07       6.22474477e-06      -1.07410700e-05 
      -4.86887808e-07       6.22474432e-06      -1.07410688e-05 
       1.27813637e-07       6.22474470e-06      -1.07410701e-05 
       4.85437567e-07       6.22474514e-06      -1.07410713e-05 
      -1.33280774e-07       6.73084926e-06      -1.16107811e-05 
      -5.02444481e-07       6.73084878e-06      -1.16107798e-05 
       1.31793594e-07       6.73084920e-06      -1.16107812e-05 
       5.00957301e-07       6.73084967e-06      -1.16107825e-05 
      -1.33280774e-07       6.73084926e-06      -1.16107811e-05 
      -5.02444481e-07       6.73084878e-06      -1.16107798e-05 
       1.31793594e-07       6.73084920e-06      -1.16107812e-05 
       5.00957301e-07       6.73084967e-06      -1.16107825e-05 
      -1.37182854e-07       7.25281703e-06      -1.25073319e-05 
      -5.17588688e-07       7.25281653e-06      -1.25073306e-05 
       1.35658407e-07       7.25281698e-06      -1.25073321e-05 
       5.16064243e-07       7.25281749e-06      -1.25073334e-05 
      -1.37182854e-07       7.25281703e-06      -1.25073319e-05 
      -5.17588688e-07       7.25281653e-06      -1.25073306e-05 
       1.35658407e-07       7.25281698e-06      -1.25073321e-05 
       5.16064243e-07       7.25281749e-06      -1.25073334e-05 
      -1.40970112e-07       7.79023357e-06      -1.34299877e-05 
      -5.32320427e-07       7.79023304e-06      -1.34299864e-05 
       1.39408082e-07       7.79023354e-06      -1.34299879e-05 
       5.30758398e-07       7.79023407e-06      -1.34299893e-05 
      -1.40970112e-07       7.79023357e-06      -1.34299877e-05 
      -5.32320427e-07       7.79023304e-06      -1.34299864e-05 
       1.39408082e-07       7.79023354e-06      -1.34299879e-05 
       5.30758398e-07       7.79023407e-06      -1.34299893e-05 
      -1.44642545e-07       8.34268437e-06      -1.43780137e-05 
      -5.46639693e-07       8.34268381e-06      -1.43780123e-05 
       1.43042622e-07       8.34268436e-06      -1.43780140e-05 
       5.45039770e-07       8.34268492e-06      -1.43780154e-05 
      -1.44642545e-07       8.34268437e-06      -1.43780137e-05 
      -5.46639693e-07       8.34268381e-06      -1.43780123e-05 
       1.43042622e-07       8.34268436e-06      -1.43780140e-05 
       5.45039770e-07       8.34268492e-06      -1.43780154e-05 
      -1.48200148e-07       8.90975492e-06      -1.53506752e-05 
      -5.60546479e-07       8.90975433e-06      -1.53506738e-05 
       1.46562034e-07       8.90975492e-06      -1.53506755e-05 
       5.58908365e-07       8.90975551e-06      -1.53506770e-05 
      -1.48200148e-07       8.90975492e-06      -1.53506752e-05 
      -5.60546479e-07       8.90975433e-06      -1.53506738e-05 
       1.46562034e-07       8.90975492e-06      -1.53506755e-05 
       5.58908365e-07       8.90975551e-06      -1.53506770e-05 
      -1.51642918e-07       9.49103071e-06      -1.63472375e-05 
      -5.74040785e-07       9.49103009e-06      -1.63472360e-05 
       1.49966318e-07       9.49103072e-06      -1.63472378e-05 
       5.72364184e-07       9.49103134e-06      -1.63472393e-05 
      -1.51642918e-07       9.49103071e-06      -1.63472375e-05 
      -5.74040785e-07       9.49103009e-06      -1.63472360e-05 
       1.49966318e-07       9.49103072e-06      -1.63472378e-05 
       5.72364184e-07       9.49103134e-06      -1.63472393e-05 
      -1.54970849e-07       1.00860972e-05      -1.73669656e-05 
      -5.87122603e-07       1.00860966e-05      -1.73669641e-05 
       1.53255480e-07       1.00860973e-05      -1.73669660e-05 
       5.85407234e-07       1.00860979e-05      -1.73669675e-05 
      -1.54970849e-07       1.00860972e-05      -1.73669656e-05 
      -5.87122603e-07       1.00860966e-05      -1.73669641e-05 
       1.53255480e-07       1.00860973e-05      -1.73669660e-05 
       5.85407234e-07       1.00860979e-05      -1.73669675e-05 
      -1.58187144e-07       1.06945493e-05      -1.84091437e-05 
      -5.99815260e-07       1.06945486e-05      -1.84091421e-05 
       1.56445870e-07       1.06945494e-05      -1.84091440e-05 
       5.98073984e-07       1.06945500e-05      -1.84091457e-05 
      -1.58187144e-07       1.06945493e-05      -1.84091437e-05 
      -5.99815260e-07       1.06945486e-05      -1.84091421e-05 
       1.56445870e-07       1.06945494e-05      -1.84091440e-05 
       5.98073984e-07       1.06945500e-05      -1.84091457e-05 
      -1.61307190e-07       1.13160191e-05      -1.94731272e-05 
      -6.12154142e-07       1.13160184e-05      -1.94731255e-05 
       1.59539675e-07       1.13160191e-05      -1.94731276e-05 
       6.10386627e-07       1.13160198e-05      -1.94731292e-05 
      -1.61307190e-07       1.13160191e-05      -1.94731272e-05 
      -6.12154142e-07       1.13160184e-05      -1.94731255e-05 
       1.59539675e-07       1.13160191e-05      -1.94731276e-05 
       6.10386627e-07       1.13160198e-05      -1.94731292e-05 
      -1.64330978e-07       1.19501478e-05      -2.05582890e-05 
      -6.24139243e-07       1.19501471e-05      -2.05582873e-05 
       1.62536902e-07       1.19501479e-05      -2.05582894e-05 
       6.22345167e-07       1.19501486e-05      -2.05582911e-05 
      -1.64330978e-07       1.19501478e-05      -2.05582890e-05 
      -6.24139243e-07       1.19501471e-05      -2.05582873e-05 
       1.62536902e-07       1.19501479e-05      -2.05582894e-05 
       6.22345167e-07       1.19501486e-05      -2.05582911e-05 
      -1.67258508e-07       1.25965770e-05      -2.16640019e-05 
      -6.35770563e-07       1.25965763e-05      -2.16640002e-05 
       1.65437554e-07       1.25965771e-05      -2.16640024e-05 
       6.33949609e-07       1.25965779e-05      -2.16640041e-05 
      -1.67258508e-07       1.25965770e-05      -2.16640019e-05 
      -6.35770563e-07       1.25965763e-05      -2.16640002e-05 
       1.65437554e-07       1.25965771e-05      -2.16640024e-05 
       6.33949609e-07       1.25965779e-05      -2.16640041e-05 
      -1.70089774e-07       1.32549480e-05      -2.27896388e-05 
      -6.47048094e-07       1.32549472e-05      -2.27896370e-05 
       1.68241638e-07       1.32549481e-05      -2.27896393e-05 
       6.45199958e-07       1.32549489e-05      -2.27896411e-05 
      -1.70089774e-07       1.32549480e-05      -2.27896388e-05 
      -6.47048094e-07       1.32549472e-05      -2.27896370e-05 
       1.68241638e-07       1.32549481e-05      -2.27896393e-05 
       6.45199958e-07       1.32549489e-05      -2.27896411e-05 
      -1.72824770e-07       1.39249020e-05      -2.39345724e-05 
      -6.57971833e-07       1.39249012e-05      -2.39345706e-05 
       1.70949156e-07       1.39249022e-05      -2.39345730e-05 
       6.56096218e-07       1.39249030e-05      -2.39345748e-05 
      -1.72824770e-07       1.39249020e-05      -2.39345724e-05 
      -6.57971833e-07       1.39249012e-05      -2.39345706e-05 
       1.70949156e-07       1.39249022e-05      -2.39345730e-05 
       6.56096218e-07       1.39249030e-05      -2.39345748e-05 
      -1.75463493e-07       1.46060806e-05      -2.50981757e-05 
      -6.68541773e-07       1.46060798e-05      -2.50981738e-05 
       1.73560115e-07       1.46060808e-05      -2.50981762e-05 
       6.66638395e-07       1.46060816e-05      -2.50981781e-05 
      -1.75463493e-07       1.46060806e-05      -2.50981757e-05 
      -6.68541773e-07       1.46060798e-05      -2.50981738e-05 
       1.73560115e-07       1.46060808e-05      -2.50981762e-05 
       6.66638395e-07       1.46060816e-05      -2.50981781e-05 
      -1.78005934e-07       1.52981251e-05      -2.62798213e-05 
      -6.78757909e-07       1.52981242e-05      -2.62798194e-05 
       1.76074519e-07       1.52981252e-05      -2.62798219e-05 
       6.76826494e-07       1.52981261e-05      -2.62798239e-05 
      -1.78005934e-07       1.52981251e-05      -2.62798213e-05 
      -6.78757909e-07       1.52981242e-05      -2.62798194e-05 