# vtk DataFile Version 2.0
./output/onsasExample_BladeCantileverBeamNoPitch_windVel3DDynamic 3D/onsasExample_BladeCantileverBeamNoPitch_windVel3DDynamic 3D_0118.vtk
ASCII
DATASET UNSTRUCTURED_GRID

POINTS 800 float
      -1.232855e-23      -7.180703e-02      -7.180703e-02 
      -4.719573e-23       7.180703e-02      -7.180703e-02 
       1.232855e-23       7.180703e-02       7.180703e-02 
       4.719573e-23      -7.180703e-02       7.180703e-02 
       2.000000e-01      -7.180702e-02      -7.180706e-02 
       2.000000e-01       7.180705e-02      -7.180706e-02 
       2.000000e-01       7.180705e-02       7.180701e-02 
       2.000000e-01      -7.180702e-02       7.180701e-02 
       2.000000e-01      -7.180702e-02      -7.180706e-02 
       2.000000e-01       7.180705e-02      -7.180706e-02 
       2.000000e-01       7.180705e-02       7.180701e-02 
       2.000000e-01      -7.180702e-02       7.180701e-02 
       4.000000e-01      -7.180698e-02      -7.180713e-02 
       3.999999e-01       7.180709e-02      -7.180713e-02 
       4.000000e-01       7.180709e-02       7.180694e-02 
       4.000001e-01      -7.180698e-02       7.180694e-02 
       4.000000e-01      -7.180698e-02      -7.180713e-02 
       3.999999e-01       7.180709e-02      -7.180713e-02 
       4.000000e-01       7.180709e-02       7.180694e-02 
       4.000001e-01      -7.180698e-02       7.180694e-02 
       6.000000e-01      -7.180691e-02      -7.180725e-02 
       5.999999e-01       7.180716e-02      -7.180725e-02 
       6.000000e-01       7.180716e-02       7.180681e-02 
       6.000001e-01      -7.180691e-02       7.180681e-02 
       6.000000e-01      -7.180691e-02      -7.180725e-02 
       5.999999e-01       7.180716e-02      -7.180725e-02 
       6.000000e-01       7.180716e-02       7.180681e-02 
       6.000001e-01      -7.180691e-02       7.180681e-02 
       8.000000e-01      -7.180682e-02      -7.180742e-02 
       7.999999e-01       7.180725e-02      -7.180742e-02 
       8.000000e-01       7.180725e-02       7.180665e-02 
       8.000001e-01      -7.180682e-02       7.180665e-02 
       8.000000e-01      -7.180682e-02      -7.180742e-02 
       7.999999e-01       7.180725e-02      -7.180742e-02 
       8.000000e-01       7.180725e-02       7.180665e-02 
       8.000001e-01      -7.180682e-02       7.180665e-02 
       1.000000e+00      -7.180669e-02      -7.180763e-02 
       9.999999e-01       7.180737e-02      -7.180763e-02 
       1.000000e+00       7.180737e-02       7.180643e-02 
       1.000000e+00      -7.180669e-02       7.180643e-02 
       1.000000e+00      -7.180669e-02      -7.180763e-02 
       9.999999e-01       7.180737e-02      -7.180763e-02 
       1.000000e+00       7.180737e-02       7.180643e-02 
       1.000000e+00      -7.180669e-02       7.180643e-02 
       1.200000e+00      -7.180655e-02      -7.180789e-02 
       1.200000e+00       7.180752e-02      -7.180789e-02 
       1.200000e+00       7.180752e-02       7.180618e-02 
       1.200000e+00      -7.180655e-02       7.180618e-02 
       1.200000e+00      -7.180655e-02      -7.180789e-02 
       1.200000e+00       7.180752e-02      -7.180789e-02 
       1.200000e+00       7.180752e-02       7.180618e-02 
       1.200000e+00      -7.180655e-02       7.180618e-02 
       1.400000e+00      -7.180638e-02      -7.180819e-02 
       1.400000e+00       7.180769e-02      -7.180819e-02 
       1.400000e+00       7.180769e-02       7.180587e-02 
       1.400000e+00      -7.180638e-02       7.180587e-02 
       1.400000e+00      -7.180638e-02      -7.180819e-02 
       1.400000e+00       7.180769e-02      -7.180819e-02 
       1.400000e+00       7.180769e-02       7.180587e-02 
       1.400000e+00      -7.180638e-02       7.180587e-02 
       1.600000e+00      -7.180618e-02      -7.180854e-02 
       1.600000e+00       7.180788e-02      -7.180854e-02 
       1.600000e+00       7.180788e-02       7.180553e-02 
       1.600000e+00      -7.180618e-02       7.180553e-02 
       1.600000e+00      -7.180618e-02      -7.180854e-02 
       1.600000e+00       7.180788e-02      -7.180854e-02 
       1.600000e+00       7.180788e-02       7.180553e-02 
       1.600000e+00      -7.180618e-02       7.180553e-02 
       1.800000e+00      -7.180597e-02      -7.180892e-02 
       1.800000e+00       7.180810e-02      -7.180892e-02 
       1.800000e+00       7.180810e-02       7.180514e-02 
       1.800000e+00      -7.180597e-02       7.180514e-02 
       1.800000e+00      -7.180597e-02      -7.180892e-02 
       1.800000e+00       7.180810e-02      -7.180892e-02 
       1.800000e+00       7.180810e-02       7.180514e-02 
       1.800000e+00      -7.180597e-02       7.180514e-02 
       2.000000e+00      -7.180572e-02      -7.180935e-02 
       2.000000e+00       7.180834e-02      -7.180935e-02 
       2.000000e+00       7.180834e-02       7.180472e-02 
       2.000000e+00      -7.180572e-02       7.180472e-02 
       2.000000e+00      -7.180572e-02      -7.180935e-02 
       2.000000e+00       7.180834e-02      -7.180935e-02 
       2.000000e+00       7.180834e-02       7.180472e-02 
       2.000000e+00      -7.180572e-02       7.180472e-02 
       2.200000e+00      -7.180546e-02      -7.180982e-02 
       2.200000e+00       7.180861e-02      -7.180982e-02 
       2.200000e+00       7.180861e-02       7.180425e-02 
       2.200000e+00      -7.180546e-02       7.180425e-02 
       2.200000e+00      -7.180546e-02      -7.180982e-02 
       2.200000e+00       7.180861e-02      -7.180982e-02 
       2.200000e+00       7.180861e-02       7.180425e-02 
       2.200000e+00      -7.180546e-02       7.180425e-02 
       2.400000e+00      -7.180517e-02      -7.181032e-02 
       2.400000e+00       7.180889e-02      -7.181032e-02 
       2.400000e+00       7.180889e-02       7.180374e-02 
       2.400000e+00      -7.180517e-02       7.180374e-02 
       2.400000e+00      -7.180517e-02      -7.181032e-02 
       2.400000e+00       7.180889e-02      -7.181032e-02 
       2.400000e+00       7.180889e-02       7.180374e-02 
       2.400000e+00      -7.180517e-02       7.180374e-02 
       2.600000e+00      -7.180486e-02      -7.181087e-02 
       2.600000e+00       7.180920e-02      -7.181087e-02 
       2.600000e+00       7.180920e-02       7.180320e-02 
       2.600000e+00      -7.180486e-02       7.180320e-02 
       2.600000e+00      -7.180486e-02      -7.181087e-02 
       2.600000e+00       7.180920e-02      -7.181087e-02 
       2.600000e+00       7.180920e-02       7.180320e-02 
       2.600000e+00      -7.180486e-02       7.180320e-02 
       2.800000e+00      -7.180454e-02      -7.181145e-02 
       2.800000e+00       7.180953e-02      -7.181145e-02 
       2.800000e+00       7.180953e-02       7.180262e-02 
       2.800000e+00      -7.180454e-02       7.180262e-02 
       2.800000e+00      -7.180454e-02      -7.181145e-02 
       2.800000e+00       7.180953e-02      -7.181145e-02 
       2.800000e+00       7.180953e-02       7.180262e-02 
       2.800000e+00      -7.180454e-02       7.180262e-02 
       3.000000e+00      -7.180419e-02      -7.181207e-02 
       3.000000e+00       7.180988e-02      -7.181207e-02 
       3.000000e+00       7.180988e-02       7.180200e-02 
       3.000000e+00      -7.180419e-02       7.180200e-02 
       3.000000e+00      -7.180419e-02      -7.181207e-02 
       3.000000e+00       7.180988e-02      -7.181207e-02 
       3.000000e+00       7.180988e-02       7.180200e-02 
       3.000000e+00      -7.180419e-02       7.180200e-02 
       3.200000e+00      -7.180381e-02      -7.181272e-02 
       3.200000e+00       7.181025e-02      -7.181272e-02 
       3.200000e+00       7.181025e-02       7.180135e-02 
       3.200000e+00      -7.180381e-02       7.180135e-02 
       3.200000e+00      -7.180381e-02      -7.181272e-02 
       3.200000e+00       7.181025e-02      -7.181272e-02 
       3.200000e+00       7.181025e-02       7.180135e-02 
       3.200000e+00      -7.180381e-02       7.180135e-02 
       3.400000e+00      -7.180342e-02      -7.181341e-02 
       3.400000e+00       7.181064e-02      -7.181341e-02 
       3.400000e+00       7.181064e-02       7.180066e-02 
       3.400000e+00      -7.180342e-02       7.180066e-02 
       3.400000e+00      -7.180342e-02      -7.181341e-02 
       3.400000e+00       7.181064e-02      -7.181341e-02 
       3.400000e+00       7.181064e-02       7.180066e-02 
       3.400000e+00      -7.180342e-02       7.180066e-02 
       3.600000e+00      -7.180301e-02      -7.181413e-02 
       3.600000e+00       7.181105e-02      -7.181413e-02 
       3.600000e+00       7.181105e-02       7.179993e-02 
       3.600000e+00      -7.180301e-02       7.179993e-02 
       3.600000e+00      -7.180301e-02      -7.181413e-02 
       3.600000e+00       7.181105e-02      -7.181413e-02 
       3.600000e+00       7.181105e-02       7.179993e-02 
       3.600000e+00      -7.180301e-02       7.179993e-02 
       3.800000e+00      -7.180259e-02      -7.181489e-02 
       3.800000e+00       7.181148e-02      -7.181489e-02 
       3.800000e+00       7.181148e-02       7.179918e-02 
       3.800000e+00      -7.180259e-02       7.179918e-02 
       3.800000e+00      -7.180259e-02      -7.181489e-02 
       3.800000e+00       7.181148e-02      -7.181489e-02 
       3.800000e+00       7.181148e-02       7.179918e-02 
       3.800000e+00      -7.180259e-02       7.179918e-02 
       4.000000e+00      -7.180214e-02      -7.181567e-02 
       4.000000e+00       7.181193e-02      -7.181567e-02 
       4.000000e+00       7.181193e-02       7.179839e-02 
       4.000000e+00      -7.180214e-02       7.179839e-02 
       4.000000e+00      -7.180214e-02      -7.181567e-02 
       4.000000e+00       7.181193e-02      -7.181567e-02 
       4.000000e+00       7.181193e-02       7.179839e-02 
       4.000000e+00      -7.180214e-02       7.179839e-02 
       4.200000e+00      -7.180167e-02      -7.181649e-02 
[...]
POINT_DATA       800 
VECTORS Displacements float
      -1.23285513e-23       1.38777878e-17       0.00000000e+00 
      -4.71957255e-23      -1.38777878e-17       1.38777878e-17 
       1.23285513e-23      -1.38777878e-17       0.00000000e+00 
       4.71957255e-23       1.38777878e-17      -1.38777878e-17 
      -7.72651601e-09       1.38827602e-08      -2.46266610e-08 
      -2.76009798e-08       1.38827588e-08      -2.46266326e-08 
       7.65030636e-09       1.38827353e-08      -2.46266369e-08 
       2.75247701e-08       1.38827367e-08      -2.46266653e-08 
      -7.72651601e-09       1.38827602e-08      -2.46266610e-08 
      -2.76009798e-08       1.38827588e-08      -2.46266326e-08 
       7.65030636e-09       1.38827353e-08      -2.46266369e-08 
       2.75247701e-08       1.38827367e-08      -2.46266653e-08 
      -1.52943130e-08       5.51794348e-08      -9.78601863e-08 
      -5.46645518e-08       5.51794294e-08      -9.78601249e-08 
       1.51417452e-08       5.51793870e-08      -9.78601418e-08 
       5.45119839e-08       5.51793925e-08      -9.78602033e-08 
      -1.52943130e-08       5.51794348e-08      -9.78601863e-08 
      -5.46645518e-08       5.51794294e-08      -9.78601249e-08 
       1.51417452e-08       5.51793870e-08      -9.78601418e-08 
       5.45119839e-08       5.51793925e-08      -9.78602033e-08 
      -2.27033896e-08       1.23362654e-07      -2.18730928e-07 
      -8.11907145e-08       1.23362642e-07      -2.18730829e-07 
       2.24743181e-08       1.23362585e-07      -2.18730867e-07 
       8.09616429e-08       1.23362597e-07      -2.18730966e-07 
      -2.27033896e-08       1.23362654e-07      -2.18730928e-07 
      -8.11907145e-08       1.23362642e-07      -2.18730829e-07 
       2.24743181e-08       1.23362585e-07      -2.18730867e-07 
       8.09616429e-08       1.23362597e-07      -2.18730966e-07 
      -2.99537443e-08       2.17905048e-07      -3.86269240e-07 
      -1.07179467e-07       2.17905027e-07      -3.86269099e-07 
       2.96480263e-08       2.17904960e-07      -3.86269164e-07 
       1.06873749e-07       2.17904981e-07      -3.86269305e-07 
      -2.99537443e-08       2.17905048e-07      -3.86269240e-07 
      -1.07179467e-07       2.17905027e-07      -3.86269099e-07 
       2.96480263e-08       2.17904960e-07      -3.86269164e-07 
       1.06873749e-07       2.17904981e-07      -3.86269305e-07 
      -3.70453754e-08       3.38279246e-07      -5.99505473e-07 
      -1.32630807e-07       3.38279214e-07      -5.99505286e-07 
       3.66628712e-08       3.38279141e-07      -5.99505386e-07 
       1.32248303e-07       3.38279172e-07      -5.99505572e-07 
      -3.70453754e-08       3.38279246e-07      -5.99505473e-07 
      -1.32630807e-07       3.38279214e-07      -5.99505286e-07 
       3.66628712e-08       3.38279141e-07      -5.99505386e-07 
       1.32248303e-07       3.38279172e-07      -5.99505572e-07 
      -4.39782819e-08       4.83957879e-07      -8.57469979e-07 
      -1.57544733e-07       4.83957834e-07      -8.57469744e-07 
       4.35188550e-08       4.83957757e-07      -8.57469885e-07 
       1.57085306e-07       4.83957802e-07      -8.57470120e-07 
      -4.39782819e-08       4.83957879e-07      -8.57469979e-07 
      -1.57544733e-07       4.83957834e-07      -8.57469744e-07 
       4.35188550e-08       4.83957757e-07      -8.57469885e-07 
       1.57085306e-07       4.83957802e-07      -8.57470120e-07 
      -5.07524618e-08       6.54413576e-07      -1.15919311e-06 
      -1.81921244e-07       6.54413516e-07      -1.15919282e-06 
       5.02159785e-08       6.54413441e-07      -1.15919301e-06 
       1.81384761e-07       6.54413500e-07      -1.15919330e-06 
      -5.07524618e-08       6.54413576e-07      -1.15919311e-06 
      -1.81921244e-07       6.54413516e-07      -1.15919282e-06 
       5.02159785e-08       6.54413441e-07      -1.15919301e-06 
       1.81384761e-07       6.54413500e-07      -1.15919330e-06 
      -5.73679144e-08       8.49118968e-07      -1.50370522e-06 
      -2.05760339e-07       8.49118892e-07      -1.50370488e-06 
       5.67542431e-08       8.49118820e-07      -1.50370512e-06 
       2.05146667e-07       8.49118896e-07      -1.50370546e-06 
      -5.73679144e-08       8.49118968e-07      -1.50370522e-06 
      -2.05760339e-07       8.49118892e-07      -1.50370488e-06 
       5.67542431e-08       8.49118820e-07      -1.50370512e-06 
       2.05146667e-07       8.49118896e-07      -1.50370546e-06 
      -6.38246374e-08       1.06754669e-06      -1.89003667e-06 
      -2.29062015e-07       1.06754659e-06      -1.89003627e-06 
       6.31336505e-08       1.06754652e-06      -1.89003656e-06 
       2.28371029e-07       1.06754662e-06      -1.89003696e-06 
      -6.38246374e-08       1.06754669e-06      -1.89003667e-06 
      -2.29062015e-07       1.06754659e-06      -1.89003627e-06 
       6.31336505e-08       1.06754652e-06      -1.89003656e-06 
       2.28371029e-07       1.06754662e-06      -1.89003696e-06 
      -7.01226295e-08       1.30916936e-06      -2.31721779e-06 
      -2.51826273e-07       1.30916924e-06      -2.31721733e-06 
       6.93542019e-08       1.30916919e-06      -2.31721769e-06 
       2.51057845e-07       1.30916930e-06      -2.31721815e-06 
      -7.01226297e-08       1.30916936e-06      -2.31721779e-06 
      -2.51826273e-07       1.30916924e-06      -2.31721733e-06 
       6.93542019e-08       1.30916919e-06      -2.31721769e-06 
       2.51057845e-07       1.30916930e-06      -2.31721815e-06 
      -7.62584782e-08       1.57346907e-06      -2.78429889e-06 
      -2.74069938e-07       1.57346893e-06      -2.78429838e-06 
       7.54410512e-08       1.57346890e-06      -2.78429880e-06 
       2.73252511e-07       1.57346904e-06      -2.78429932e-06 
      -7.62584782e-08       1.57346907e-06      -2.78429889e-06 
      -2.74069938e-07       1.57346893e-06      -2.78429838e-06 
       7.54410512e-08       1.57346890e-06      -2.78429880e-06 
       2.73252511e-07       1.57346904e-06      -2.78429932e-06 
      -8.22557595e-08       1.85996498e-06      -3.29040458e-06 
      -2.95836270e-07       1.85996482e-06      -3.29040401e-06 
       8.13890080e-08       1.85996481e-06      -3.29040451e-06 
       2.94969518e-07       1.85996497e-06      -3.29040508e-06 
      -8.22557595e-08       1.85996498e-06      -3.29040458e-06 
      -2.95836270e-07       1.85996482e-06      -3.29040401e-06 
       8.13890080e-08       1.85996481e-06      -3.29040451e-06 
       2.94969518e-07       1.85996497e-06      -3.29040508e-06 
      -8.81144713e-08       2.16818532e-06      -3.83467669e-06 
      -3.17125264e-07       2.16818514e-06      -3.83467607e-06 
       8.71980741e-08       2.16818516e-06      -3.83467664e-06 
       3.16208867e-07       2.16818534e-06      -3.83467726e-06 
      -8.81144713e-08       2.16818532e-06      -3.83467669e-06 
      -3.17125264e-07       2.16818514e-06      -3.83467607e-06 
       8.71980741e-08       2.16818516e-06      -3.83467664e-06 
       3.16208867e-07       2.16818534e-06      -3.83467726e-06 
      -9.38346081e-08       2.49765831e-06      -4.41625705e-06 
      -3.37936916e-07       2.49765810e-06      -4.41625637e-06 
       9.28682549e-08       2.49765815e-06      -4.41625701e-06 
       3.36970563e-07       2.49765836e-06      -4.41625770e-06 
      -9.38346081e-08       2.49765831e-06      -4.41625705e-06 
      -3.37936916e-07       2.49765810e-06      -4.41625637e-06 
       9.28682549e-08       2.49765815e-06      -4.41625701e-06 
       3.36970563e-07       2.49765836e-06      -4.41625770e-06 
      -9.94161682e-08       2.84791218e-06      -5.03428749e-06 
      -3.58271225e-07       2.84791195e-06      -5.03428674e-06 
       9.83995525e-08       2.84791203e-06      -5.03428747e-06 
       3.57254609e-07       2.84791226e-06      -5.03428821e-06 
      -9.94161682e-08       2.84791218e-06      -5.03428749e-06 
      -3.58271225e-07       2.84791195e-06      -5.03428674e-06 
       9.83995525e-08       2.84791203e-06      -5.03428747e-06 
       3.57254609e-07       2.84791226e-06      -5.03428821e-06 
      -1.04859147e-07       3.21847515e-06      -5.68790983e-06 
      -3.78128186e-07       3.21847489e-06      -5.68790902e-06 
       1.03791971e-07       3.21847500e-06      -5.68790983e-06 
       3.77061009e-07       3.21847526e-06      -5.68791064e-06 
      -1.04859147e-07       3.21847515e-06      -5.68790983e-06 
      -3.78128186e-07       3.21847489e-06      -5.68790902e-06 
       1.03791971e-07       3.21847500e-06      -5.68790983e-06 
       3.77061009e-07       3.21847526e-06      -5.68791064e-06 
      -1.10163541e-07       3.60887545e-06      -6.37626591e-06 
      -3.97507793e-07       3.60887516e-06      -6.37626504e-06 
       1.09045515e-07       3.60887531e-06      -6.37626593e-06 
       3.96389768e-07       3.60887560e-06      -6.37626680e-06 
      -1.10163541e-07       3.60887545e-06      -6.37626591e-06 
      -3.97507793e-07       3.60887516e-06      -6.37626504e-06 
       1.09045515e-07       3.60887531e-06      -6.37626593e-06 
       3.96389768e-07       3.60887560e-06      -6.37626680e-06 
      -1.15329347e-07       4.01864131e-06      -7.09849755e-06 
      -4.16410046e-07       4.01864099e-06      -7.09849662e-06 
       1.14160188e-07       4.01864117e-06      -7.09849760e-06 
       4.15240887e-07       4.01864149e-06      -7.09849853e-06 
      -1.15329347e-07       4.01864131e-06      -7.09849755e-06 
      -4.16410046e-07       4.01864099e-06      -7.09849662e-06 
       1.14160188e-07       4.01864117e-06      -7.09849760e-06 
       4.15240887e-07       4.01864149e-06      -7.09849853e-06 
      -1.20356561e-07       4.44730094e-06      -7.85374659e-06 
      -4.34834940e-07       4.44730060e-06      -7.85374559e-06 
       1.19135991e-07       4.44730082e-06      -7.85374666e-06 
       4.33614370e-07       4.44730116e-06      -7.85374766e-06 
      -1.20356561e-07       4.44730094e-06      -7.85374659e-06 
      -4.34834940e-07       4.44730060e-06      -7.85374559e-06 
       1.19135991e-07       4.44730082e-06      -7.85374666e-06 
       4.33614370e-07       4.44730116e-06      -7.85374766e-06 
      -1.25245180e-07       4.89438259e-06      -8.64115485e-06 
      -4.52782472e-07       4.89438221e-06      -8.64115379e-06 
       1.23972930e-07       4.89438247e-06      -8.64115494e-06 
       4.51510221e-07       4.89438284e-06      -8.64115601e-06 
      -1.25245180e-07       4.89438259e-06      -8.64115485e-06 
      -4.52782472e-07       4.89438221e-06      -8.64115379e-06 
       1.23972930e-07       4.89438247e-06      -8.64115494e-06 
       4.51510221e-07       4.89438284e-06      -8.64115601e-06 
      -1.29995381e-07       5.35942377e-06      -9.45988318e-06 
      -4.70272789e-07       5.35942337e-06      -9.45988206e-06 
       1.28691089e-07       5.35942367e-06      -9.45988331e-06 
       4.68968497e-07       5.35942407e-06      -9.45988443e-06 
      -1.29995381e-07       5.35942377e-06      -9.45988318e-06 
      -4.70272789e-07       5.35942337e-06      -9.45988206e-06 
       1.28691089e-07       5.35942367e-06      -9.45988331e-06 
       4.68968497e-07       5.35942407e-06      -9.45988443e-06 
      -1.34625989e-07       5.84199878e-06      -1.03091644e-05 
      -4.87344323e-07       5.84199835e-06      -1.03091632e-05 
       1.33289272e-07       5.84199869e-06      -1.03091645e-05 
       4.86007607e-07       5.84199913e-06      -1.03091657e-05 
      -1.34625989e-07       5.84199878e-06      -1.03091644e-05 
      -4.87344323e-07       5.84199835e-06      -1.03091632e-05 
       1.33289272e-07       5.84199869e-06      -1.03091645e-05 
       4.86007607e-07       5.84199913e-06      -1.03091657e-05 
      -1.39136997e-07       6.34169096e-06      -1.11882481e-05 
      -5.03997070e-07       6.34169050e-06      -1.11882469e-05 
       1.37767483e-07       6.34169089e-06      -1.11882483e-05 
       5.02627556e-07       6.34169135e-06      -1.11882495e-05 
      -1.39136997e-07       6.34169096e-06      -1.11882481e-05 
      -5.03997070e-07       6.34169050e-06      -1.11882469e-05 
       1.37767483e-07       6.34169089e-06      -1.11882483e-05 
       5.02627556e-07       6.34169135e-06      -1.11882495e-05 
      -1.43528404e-07       6.85808366e-06      -1.20963841e-05 
      -5.20231027e-07       6.85808317e-06      -1.20963828e-05 
       1.42125725e-07       6.85808360e-06      -1.20963844e-05 
       5.18828347e-07       6.85808410e-06      -1.20963857e-05 
      -1.43528404e-07       6.85808366e-06      -1.20963841e-05 
      -5.20231027e-07       6.85808317e-06      -1.20963828e-05 
       1.42125725e-07       6.85808360e-06      -1.20963844e-05 
       5.18828347e-07       6.85808410e-06      -1.20963857e-05 
      -1.47800204e-07       7.39076021e-06      -1.30328222e-05 
      -5.36046187e-07       7.39075969e-06      -1.30328208e-05 
       1.46364004e-07       7.39076017e-06      -1.30328224e-05 
       5.34609987e-07       7.39076070e-06      -1.30328238e-05 
      -1.47800204e-07       7.39076021e-06      -1.30328222e-05 
      -5.36046187e-07       7.39075969e-06      -1.30328208e-05 
       1.46364004e-07       7.39076017e-06      -1.30328224e-05 
       5.34609987e-07       7.39076070e-06      -1.30328238e-05 
      -1.51952391e-07       7.93930397e-06      -1.39968119e-05 
      -5.51442547e-07       7.93930341e-06      -1.39968105e-05 
       1.50482324e-07       7.93930394e-06      -1.39968122e-05 
       5.49972479e-07       7.93930450e-06      -1.39968136e-05 
      -1.51952391e-07       7.93930397e-06      -1.39968119e-05 
      -5.51442547e-07       7.93930341e-06      -1.39968105e-05 
       1.50482324e-07       7.93930394e-06      -1.39968122e-05 
       5.49972479e-07       7.93930450e-06      -1.39968136e-05 
      -1.55984963e-07       8.50329827e-06      -1.49876030e-05 
      -5.66420102e-07       8.50329768e-06      -1.49876015e-05 
       1.54480691e-07       8.50329826e-06      -1.49876033e-05 
       5.64915830e-07       8.50329885e-06      -1.49876048e-05 
      -1.55984963e-07       8.50329827e-06      -1.49876030e-05 
      -5.66420102e-07       8.50329768e-06      -1.49876015e-05 
       1.54480691e-07       8.50329826e-06      -1.49876033e-05 
       5.64915830e-07       8.50329885e-06      -1.49876048e-05 
      -1.59897912e-07       9.08232646e-06      -1.60044453e-05 
      -5.80978844e-07       9.08232584e-06      -1.60044437e-05 
       1.58359110e-07       9.08232646e-06      -1.60044456e-05 
       5.79440043e-07       9.08232708e-06      -1.60044472e-05 
      -1.59897912e-07       9.08232646e-06      -1.60044453e-05 
      -5.80978844e-07       9.08232584e-06      -1.60044437e-05 
       1.58359110e-07       9.08232646e-06      -1.60044456e-05 
       5.79440043e-07       9.08232708e-06      -1.60044472e-05 
      -1.63691236e-07       9.67597188e-06      -1.70465884e-05 
      -5.95118774e-07       9.67597123e-06      -1.70465868e-05 
       1.62117583e-07       9.67597190e-06      -1.70465888e-05 
       5.93545121e-07       9.67597255e-06      -1.70465904e-05 
      -1.63691236e-07       9.67597188e-06      -1.70465884e-05 
      -5.95118774e-07       9.67597123e-06      -1.70465868e-05 
       1.62117583e-07       9.67597190e-06      -1.70465888e-05 
       5.93545121e-07       9.67597255e-06      -1.70465904e-05 
      -1.67364928e-07       1.02838179e-05      -1.81132820e-05 
      -6.08839883e-07       1.02838172e-05      -1.81132804e-05 
       1.65756116e-07       1.02838179e-05      -1.81132824e-05 
       6.07231072e-07       1.02838186e-05      -1.81132841e-05 
      -1.67364928e-07       1.02838179e-05      -1.81132820e-05 
      -6.08839883e-07       1.02838172e-05      -1.81132804e-05 
       1.65756117e-07       1.02838179e-05      -1.81132824e-05 
       6.07231073e-07       1.02838186e-05      -1.81132841e-05 
      -1.70921970e-07       1.09054570e-05      -1.92037942e-05 
      -6.22164940e-07       1.09054563e-05      -1.92037925e-05 
       1.69290821e-07       1.09054570e-05      -1.92037947e-05 
       6.20533791e-07       1.09054578e-05      -1.92037964e-05 
      -1.70921970e-07       1.09054570e-05      -1.92037942e-05 
      -6.22164940e-07       1.09054563e-05      -1.92037925e-05 
       1.69290821e-07       1.09054570e-05      -1.92037947e-05 
       6.20533791e-07       1.09054578e-05      -1.92037964e-05 
      -1.74377484e-07       1.15405183e-05      -2.03174632e-05 
      -6.35128647e-07       1.15405176e-05      -2.03174614e-05 
       1.72723634e-07       1.15405184e-05      -2.03174637e-05 
       6.33474797e-07       1.15405192e-05      -2.03174654e-05 
      -1.74377484e-07       1.15405183e-05      -2.03174632e-05 
      -6.35128647e-07       1.15405176e-05      -2.03174614e-05 
       1.72723634e-07       1.15405184e-05      -2.03174637e-05 
       6.33474797e-07       1.15405192e-05      -2.03174654e-05 
      -1.77731466e-07       1.21886401e-05      -2.14536437e-05 
      -6.47731001e-07       1.21886393e-05      -2.14536418e-05 
       1.76054558e-07       1.21886402e-05      -2.14536442e-05 
       6.46054094e-07       1.21886409e-05      -2.14536460e-05 
      -1.77731466e-07       1.21886401e-05      -2.14536437e-05 
      -6.47731001e-07       1.21886393e-05      -2.14536418e-05 
       1.76054558e-07       1.21886402e-05      -2.14536442e-05 
       6.46054094e-07       1.21886409e-05      -2.14536460e-05 
      -1.80983911e-07       1.28494604e-05      -2.26116906e-05 
      -6.59971996e-07       1.28494596e-05      -2.26116887e-05 
       1.79283600e-07       1.28494605e-05      -2.26116912e-05 
       6.58271685e-07       1.28494613e-05      -2.26116931e-05 
      -1.80983911e-07       1.28494604e-05      -2.26116906e-05 
      -6.59971996e-07       1.28494596e-05      -2.26116887e-05 
       1.79283600e-07       1.28494605e-05      -2.26116912e-05 
       6.58271685e-07       1.28494613e-05      -2.26116931e-05 
      -1.84134815e-07       1.35226174e-05      -2.37909589e-05 
      -6.71851629e-07       1.35226166e-05      -2.37909570e-05 
       1.82410763e-07       1.35226176e-05      -2.37909595e-05 
       6.70127577e-07       1.35226184e-05      -2.37909615e-05 
      -1.84134815e-07       1.35226174e-05      -2.37909589e-05 
      -6.71851629e-07       1.35226166e-05      -2.37909570e-05 
       1.82410763e-07       1.35226176e-05      -2.37909595e-05 
       6.70127577e-07       1.35226184e-05      -2.37909615e-05 
      -1.87184171e-07       1.42077493e-05      -2.49908035e-05 
      -6.83369891e-07       1.42077485e-05      -2.49908015e-05 
       1.85436054e-07       1.42077495e-05      -2.49908041e-05 
       6.81621775e-07       1.42077504e-05      -2.49908061e-05 
      -1.87184171e-07       1.42077493e-05      -2.49908035e-05 
      -6.83369891e-07       1.42077485e-05      -2.49908015e-05 
       1.85436054e-07       1.42077495e-05      -2.49908041e-05 
       6.81621775e-07       1.42077504e-05      -2.49908061e-05 
      -1.90131975e-07       1.49044943e-05      -2.62105791e-05 
      -6.94526781e-07       1.49044935e-05      -2.62105771e-05 
       1.88359477e-07       1.49044945e-05      -2.62105798e-05 
       6.92754284e-07       1.49044954e-05      -2.62105818e-05 
      -1.90131975e-07       1.49044943e-05      -2.62105791e-05 
      -6.94526781e-07       1.49044935e-05      -2.62105771e-05 
       1.88359477e-07       1.49044945e-05      -2.62105798e-05 
       6.92754284e-07       1.49044954e-05      -2.62105818e-05 
      -1.92978220e-07       1.56124906e-05      -2.74496407e-05 
      -7.05322290e-07       1.56124897e-05      -2.74496386e-05 
       1.91181040e-07       1.56124908e-05      -2.74496414e-05 
       7.03525110e-07       1.56124917e-05      -2.74496435e-05 
      -1.92978220e-07       1.56124906e-05      -2.74496407e-05 
      -7.05322290e-07       1.56124897e-05      -2.74496386e-05 