# vtk DataFile Version 2.0
./output/onsasExample_BladeCantileverBeamNoPitch_windVel3DDynamic 3D/onsasExample_BladeCantileverBeamNoPitch_windVel3DDynamic 3D_0166.vtk
ASCII
DATASET UNSTRUCTURED_GRID

POINTS 800 float
       6.978056e-24      -7.180703e-02      -7.180703e-02 
       1.206325e-23       7.180703e-02      -7.180703e-02 
      -6.978056e-24       7.180703e-02       7.180703e-02 
      -1.206325e-23      -7.180703e-02       7.180703e-02 
       2.000000e-01      -7.180702e-02      -7.180706e-02 
       2.000000e-01       7.180705e-02      -7.180706e-02 
       2.000000e-01       7.180705e-02       7.180701e-02 
       2.000000e-01      -7.180702e-02       7.180701e-02 
       2.000000e-01      -7.180702e-02      -7.180706e-02 
       2.000000e-01       7.180705e-02      -7.180706e-02 
       2.000000e-01       7.180705e-02       7.180701e-02 
       2.000000e-01      -7.180702e-02       7.180701e-02 
       4.000000e-01      -7.180698e-02      -7.180714e-02 
       3.999999e-01       7.180709e-02      -7.180714e-02 
       4.000000e-01       7.180709e-02       7.180692e-02 
       4.000001e-01      -7.180698e-02       7.180692e-02 
       4.000000e-01      -7.180698e-02      -7.180714e-02 
       3.999999e-01       7.180709e-02      -7.180714e-02 
       4.000000e-01       7.180709e-02       7.180692e-02 
       4.000001e-01      -7.180698e-02       7.180692e-02 
       6.000000e-01      -7.180691e-02      -7.180728e-02 
       5.999999e-01       7.180716e-02      -7.180728e-02 
       6.000000e-01       7.180716e-02       7.180679e-02 
       6.000001e-01      -7.180691e-02       7.180679e-02 
       6.000000e-01      -7.180691e-02      -7.180728e-02 
       5.999999e-01       7.180716e-02      -7.180728e-02 
       6.000000e-01       7.180716e-02       7.180679e-02 
       6.000001e-01      -7.180691e-02       7.180679e-02 
       8.000000e-01      -7.180682e-02      -7.180746e-02 
       7.999999e-01       7.180725e-02      -7.180746e-02 
       8.000000e-01       7.180725e-02       7.180660e-02 
       8.000001e-01      -7.180682e-02       7.180660e-02 
       8.000000e-01      -7.180682e-02      -7.180746e-02 
       7.999999e-01       7.180725e-02      -7.180746e-02 
       8.000000e-01       7.180725e-02       7.180660e-02 
       8.000001e-01      -7.180682e-02       7.180660e-02 
       1.000000e+00      -7.180670e-02      -7.180770e-02 
       9.999999e-01       7.180737e-02      -7.180770e-02 
       1.000000e+00       7.180737e-02       7.180637e-02 
       1.000000e+00      -7.180670e-02       7.180637e-02 
       1.000000e+00      -7.180670e-02      -7.180770e-02 
       9.999999e-01       7.180737e-02      -7.180770e-02 
       1.000000e+00       7.180737e-02       7.180637e-02 
       1.000000e+00      -7.180670e-02       7.180637e-02 
       1.200000e+00      -7.180655e-02      -7.180799e-02 
       1.200000e+00       7.180751e-02      -7.180799e-02 
       1.200000e+00       7.180751e-02       7.180608e-02 
       1.200000e+00      -7.180655e-02       7.180608e-02 
       1.200000e+00      -7.180655e-02      -7.180799e-02 
       1.200000e+00       7.180751e-02      -7.180799e-02 
       1.200000e+00       7.180751e-02       7.180608e-02 
       1.200000e+00      -7.180655e-02       7.180608e-02 
       1.400000e+00      -7.180639e-02      -7.180832e-02 
       1.400000e+00       7.180768e-02      -7.180832e-02 
       1.400000e+00       7.180768e-02       7.180574e-02 
       1.400000e+00      -7.180639e-02       7.180574e-02 
       1.400000e+00      -7.180639e-02      -7.180832e-02 
       1.400000e+00       7.180768e-02      -7.180832e-02 
       1.400000e+00       7.180768e-02       7.180574e-02 
       1.400000e+00      -7.180639e-02       7.180574e-02 
       1.600000e+00      -7.180619e-02      -7.180871e-02 
       1.600000e+00       7.180787e-02      -7.180871e-02 
       1.600000e+00       7.180787e-02       7.180536e-02 
       1.600000e+00      -7.180619e-02       7.180536e-02 
       1.600000e+00      -7.180619e-02      -7.180871e-02 
       1.600000e+00       7.180787e-02      -7.180871e-02 
       1.600000e+00       7.180787e-02       7.180536e-02 
       1.600000e+00      -7.180619e-02       7.180536e-02 
       1.800000e+00      -7.180598e-02      -7.180914e-02 
       1.800000e+00       7.180809e-02      -7.180914e-02 
       1.800000e+00       7.180809e-02       7.180493e-02 
       1.800000e+00      -7.180598e-02       7.180493e-02 
       1.800000e+00      -7.180598e-02      -7.180914e-02 
       1.800000e+00       7.180809e-02      -7.180914e-02 
       1.800000e+00       7.180809e-02       7.180493e-02 
       1.800000e+00      -7.180598e-02       7.180493e-02 
       2.000000e+00      -7.180574e-02      -7.180962e-02 
       2.000000e+00       7.180833e-02      -7.180962e-02 
       2.000000e+00       7.180833e-02       7.180445e-02 
       2.000000e+00      -7.180574e-02       7.180445e-02 
       2.000000e+00      -7.180574e-02      -7.180962e-02 
       2.000000e+00       7.180833e-02      -7.180962e-02 
       2.000000e+00       7.180833e-02       7.180445e-02 
       2.000000e+00      -7.180574e-02       7.180445e-02 
       2.200000e+00      -7.180548e-02      -7.181014e-02 
       2.200000e+00       7.180859e-02      -7.181014e-02 
       2.200000e+00       7.180859e-02       7.180393e-02 
       2.200000e+00      -7.180548e-02       7.180393e-02 
       2.200000e+00      -7.180548e-02      -7.181014e-02 
       2.200000e+00       7.180859e-02      -7.181014e-02 
       2.200000e+00       7.180859e-02       7.180393e-02 
       2.200000e+00      -7.180548e-02       7.180393e-02 
       2.400000e+00      -7.180519e-02      -7.181070e-02 
       2.400000e+00       7.180887e-02      -7.181070e-02 
       2.400000e+00       7.180887e-02       7.180336e-02 
       2.400000e+00      -7.180519e-02       7.180336e-02 
       2.400000e+00      -7.180519e-02      -7.181070e-02 
       2.400000e+00       7.180887e-02      -7.181070e-02 
       2.400000e+00       7.180887e-02       7.180336e-02 
       2.400000e+00      -7.180519e-02       7.180336e-02 
       2.600000e+00      -7.180489e-02      -7.181131e-02 
       2.600000e+00       7.180918e-02      -7.181131e-02 
       2.600000e+00       7.180918e-02       7.180275e-02 
       2.600000e+00      -7.180489e-02       7.180275e-02 
       2.600000e+00      -7.180489e-02      -7.181131e-02 
       2.600000e+00       7.180918e-02      -7.181131e-02 
       2.600000e+00       7.180918e-02       7.180275e-02 
       2.600000e+00      -7.180489e-02       7.180275e-02 
       2.800000e+00      -7.180456e-02      -7.181196e-02 
       2.800000e+00       7.180950e-02      -7.181196e-02 
       2.800000e+00       7.180950e-02       7.180210e-02 
       2.800000e+00      -7.180456e-02       7.180210e-02 
       2.800000e+00      -7.180456e-02      -7.181196e-02 
       2.800000e+00       7.180950e-02      -7.181196e-02 
       2.800000e+00       7.180950e-02       7.180210e-02 
       2.800000e+00      -7.180456e-02       7.180210e-02 
       3.000000e+00      -7.180422e-02      -7.181265e-02 
       3.000000e+00       7.180985e-02      -7.181265e-02 
       3.000000e+00       7.180985e-02       7.180141e-02 
       3.000000e+00      -7.180422e-02       7.180141e-02 
       3.000000e+00      -7.180422e-02      -7.181265e-02 
       3.000000e+00       7.180985e-02      -7.181265e-02 
       3.000000e+00       7.180985e-02       7.180141e-02 
       3.000000e+00      -7.180422e-02       7.180141e-02 
       3.200000e+00      -7.180385e-02      -7.181339e-02 
       3.200000e+00       7.181022e-02      -7.181339e-02 
       3.200000e+00       7.181022e-02       7.180068e-02 
       3.200000e+00      -7.180385e-02       7.180068e-02 
       3.200000e+00      -7.180385e-02      -7.181339e-02 
       3.200000e+00       7.181022e-02      -7.181339e-02 
       3.200000e+00       7.181022e-02       7.180068e-02 
       3.200000e+00      -7.180385e-02       7.180068e-02 
       3.400000e+00      -7.180346e-02      -7.181416e-02 
       3.400000e+00       7.181060e-02      -7.181416e-02 
       3.400000e+00       7.181060e-02       7.179991e-02 
       3.400000e+00      -7.180346e-02       7.179991e-02 
       3.400000e+00      -7.180346e-02      -7.181416e-02 
       3.400000e+00       7.181060e-02      -7.181416e-02 
       3.400000e+00       7.181060e-02       7.179991e-02 
       3.400000e+00      -7.180346e-02       7.179991e-02 
       3.600000e+00      -7.180306e-02      -7.181497e-02 
       3.600000e+00       7.181101e-02      -7.181497e-02 
       3.600000e+00       7.181101e-02       7.179910e-02 
       3.600000e+00      -7.180306e-02       7.179910e-02 
       3.600000e+00      -7.180306e-02      -7.181497e-02 
       3.600000e+00       7.181101e-02      -7.181497e-02 
       3.600000e+00       7.181101e-02       7.179910e-02 
       3.600000e+00      -7.180306e-02       7.179910e-02 
       3.800000e+00      -7.180263e-02      -7.181581e-02 
       3.800000e+00       7.181143e-02      -7.181581e-02 
       3.800000e+00       7.181143e-02       7.179825e-02 
       3.800000e+00      -7.180263e-02       7.179825e-02 
       3.800000e+00      -7.180263e-02      -7.181581e-02 
       3.800000e+00       7.181143e-02      -7.181581e-02 
       3.800000e+00       7.181143e-02       7.179825e-02 
       3.800000e+00      -7.180263e-02       7.179825e-02 
       4.000000e+00      -7.180219e-02      -7.181670e-02 
       4.000000e+00       7.181187e-02      -7.181670e-02 
       4.000000e+00       7.181187e-02       7.179737e-02 
       4.000000e+00      -7.180219e-02       7.179737e-02 
       4.000000e+00      -7.180219e-02      -7.181670e-02 
       4.000000e+00       7.181187e-02      -7.181670e-02 
       4.000000e+00       7.181187e-02       7.179737e-02 
       4.000000e+00      -7.180219e-02       7.179737e-02 
       4.200000e+00      -7.180173e-02      -7.181762e-02 
[...]
POINT_DATA       800 
VECTORS Displacements float
       6.97805623e-24       0.00000000e+00      -1.38777878e-17 
       1.20632528e-23       1.38777878e-17       0.00000000e+00 
      -6.97805623e-24       0.00000000e+00       1.38777878e-17 
      -1.20632528e-23      -1.38777878e-17       0.00000000e+00 
      -9.79145182e-09       1.37461862e-08      -2.73684809e-08 
      -2.94698553e-08       1.37461849e-08      -2.73684469e-08 
       9.71220929e-09       1.37461563e-08      -2.73684523e-08 
       2.93906127e-08       1.37461576e-08      -2.73684862e-08 
      -9.79145182e-09       1.37461862e-08      -2.73684809e-08 
      -2.94698553e-08       1.37461849e-08      -2.73684469e-08 
       9.71220929e-09       1.37461563e-08      -2.73684523e-08 
       2.93906127e-08       1.37461576e-08      -2.73684862e-08 
      -1.94033777e-08       5.46335942e-08      -1.08789262e-07 
      -5.83819917e-08       5.46335889e-08      -1.08789189e-07 
       1.92447180e-08       5.46335369e-08      -1.08789210e-07 
       5.82233320e-08       5.46335422e-08      -1.08789283e-07 
      -1.94033777e-08       5.46335942e-08      -1.08789262e-07 
      -5.83819917e-08       5.46335889e-08      -1.08789189e-07 
       1.92447180e-08       5.46335369e-08      -1.08789210e-07 
       5.82233320e-08       5.46335422e-08      -1.08789283e-07 
      -2.88357761e-08       1.22135545e-07      -2.43235397e-07 
      -8.67364079e-08       1.22135533e-07      -2.43235280e-07 
       2.85975276e-08       1.22135462e-07      -2.43235327e-07 
       8.64981594e-08       1.22135474e-07      -2.43235444e-07 
      -2.88357761e-08       1.22135545e-07      -2.43235397e-07 
      -8.67364079e-08       1.22135533e-07      -2.43235280e-07 
       2.85975276e-08       1.22135462e-07      -2.43235327e-07 
       8.64981594e-08       1.22135474e-07      -2.43235444e-07 
      -3.80886453e-08       2.15725358e-07      -4.29679941e-07 
      -1.14533102e-07       2.15725338e-07      -4.29679776e-07 
       3.77706401e-08       2.15725254e-07      -4.29679857e-07 
       1.14215097e-07       2.15725274e-07      -4.29680022e-07 
      -3.80886453e-08       2.15725358e-07      -4.29679941e-07 
      -1.14533102e-07       2.15725338e-07      -4.29679776e-07 
       3.77706401e-08       2.15725254e-07      -4.29679857e-07 
       1.14215097e-07       2.15725274e-07      -4.29680022e-07 
      -4.71619835e-08       3.34876356e-07      -6.67095949e-07 
      -1.41772073e-07       3.34876325e-07      -6.67095730e-07 
       4.67640566e-08       3.34876231e-07      -6.67095854e-07 
       1.41374146e-07       3.34876262e-07      -6.67096072e-07 
      -4.71619835e-08       3.34876356e-07      -6.67095949e-07 
      -1.41772073e-07       3.34876325e-07      -6.67095730e-07 
       4.67640566e-08       3.34876231e-07      -6.67095854e-07 
       1.41374146e-07       3.34876262e-07      -6.67096072e-07 
      -5.60557893e-08       4.79061859e-07      -9.54456473e-07 
      -1.68453318e-07       4.79061815e-07      -9.54456198e-07 
       5.55777793e-08       4.79061715e-07      -9.54456373e-07 
       1.67975308e-07       4.79061759e-07      -9.54456648e-07 
      -5.60557893e-08       4.79061859e-07      -9.54456473e-07 
      -1.68453318e-07       4.79061815e-07      -9.54456198e-07 
       5.55777793e-08       4.79061715e-07      -9.54456373e-07 
       1.67975308e-07       4.79061759e-07      -9.54456648e-07 
      -6.47700609e-08       6.47755187e-07      -1.29073457e-06 
      -1.94576836e-07       6.47755128e-07      -1.29073423e-06 
       6.42118099e-08       6.47755026e-07      -1.29073447e-06 
       1.94018585e-07       6.47755085e-07      -1.29073480e-06 
      -6.47700609e-08       6.47755187e-07      -1.29073457e-06 
      -1.94576836e-07       6.47755128e-07      -1.29073423e-06 
       6.42118099e-08       6.47755026e-07      -1.29073447e-06 
       1.94018585e-07       6.47755085e-07      -1.29073480e-06 
      -7.33047962e-08       8.40429661e-07      -1.67490329e-06 
      -2.20142625e-07       8.40429586e-07      -1.67490289e-06 
       7.26661493e-08       8.40429485e-07      -1.67490319e-06 
       2.19503978e-07       8.40429561e-07      -1.67490359e-06 
      -7.33047962e-08       8.40429661e-07      -1.67490329e-06 
      -2.20142625e-07       8.40429586e-07      -1.67490289e-06 
       7.26661493e-08       8.40429485e-07      -1.67490319e-06 
       2.19503978e-07       8.40429561e-07      -1.67490359e-06 
      -8.16599943e-08       1.05655860e-06      -2.10593569e-06 
      -2.45150684e-07       1.05655851e-06      -2.10593523e-06 
       8.09408003e-08       1.05655841e-06      -2.10593560e-06 
       2.44431490e-07       1.05655851e-06      -2.10593606e-06 
      -8.16599943e-08       1.05655860e-06      -2.10593569e-06 
      -2.45150684e-07       1.05655851e-06      -2.10593523e-06 
       8.09408003e-08       1.05655841e-06      -2.10593560e-06 
       2.44431490e-07       1.05655851e-06      -2.10593606e-06 
      -8.98356531e-08       1.29561533e-06      -2.58280483e-06 
      -2.69601011e-07       1.29561522e-06      -2.58280429e-06 
       8.90357637e-08       1.29561513e-06      -2.58280474e-06 
       2.68801122e-07       1.29561524e-06      -2.58280528e-06 
      -8.98356531e-08       1.29561533e-06      -2.58280483e-06 
      -2.69601012e-07       1.29561522e-06      -2.58280429e-06 
       8.90357637e-08       1.29561513e-06      -2.58280474e-06 
       2.68801122e-07       1.29561524e-06      -2.58280528e-06 
      -9.78267303e-08       1.55708277e-06      -3.10450248e-06 
      -2.93509081e-07       1.55708263e-06      -3.10450188e-06 
       9.69751666e-08       1.55708257e-06      -3.10450241e-06 
       2.92657517e-07       1.55708270e-06      -3.10450301e-06 
      -9.78267303e-08       1.55708277e-06      -3.10450248e-06 
      -2.93509081e-07       1.55708263e-06      -3.10450188e-06 
       9.69751666e-08       1.55708257e-06      -3.10450241e-06 
       2.92657517e-07       1.55708270e-06      -3.10450301e-06 
      -1.05656327e-07       1.84048129e-06      -3.67009119e-06 
      -3.16917808e-07       1.84048113e-06      -3.67009053e-06 
       1.04752701e-07       1.84048109e-06      -3.67009115e-06 
       3.16014181e-07       1.84048125e-06      -3.67009181e-06 
      -1.05656327e-07       1.84048129e-06      -3.67009119e-06 
      -3.16917808e-07       1.84048113e-06      -3.67009053e-06 
       1.04752701e-07       1.84048109e-06      -3.67009115e-06 
       3.16014181e-07       1.84048125e-06      -3.67009181e-06 
      -1.13324440e-07       2.14534038e-06      -4.27865013e-06 
      -3.39827187e-07       2.14534020e-06      -4.27864941e-06 
       1.12368371e-07       2.14534019e-06      -4.27865012e-06 
       3.38871118e-07       2.14534037e-06      -4.27865085e-06 
      -1.13324440e-07       2.14534038e-06      -4.27865013e-06 
      -3.39827187e-07       2.14534020e-06      -4.27864941e-06 
       1.12368371e-07       2.14534019e-06      -4.27865012e-06 
       3.38871118e-07       2.14534037e-06      -4.27865085e-06 
      -1.20831064e-07       2.47118952e-06      -4.92925850e-06 
      -3.62237214e-07       2.47118932e-06      -4.92925771e-06 
       1.19822180e-07       2.47118934e-06      -4.92925852e-06 
       3.61228330e-07       2.47118954e-06      -4.92925931e-06 
      -1.20831064e-07       2.47118952e-06      -4.92925850e-06 
      -3.62237214e-07       2.47118932e-06      -4.92925771e-06 
       1.19822180e-07       2.47118934e-06      -4.92925852e-06 
       3.61228330e-07       2.47118954e-06      -4.92925931e-06 
      -1.28176196e-07       2.81755820e-06      -5.62099547e-06 
      -3.84147887e-07       2.81755797e-06      -5.62099461e-06 
       1.27114133e-07       2.81755803e-06      -5.62099552e-06 
       3.83085824e-07       2.81755825e-06      -5.62099638e-06 
      -1.28176196e-07       2.81755820e-06      -5.62099547e-06 
      -3.84147887e-07       2.81755797e-06      -5.62099461e-06 
       1.27114133e-07       2.81755803e-06      -5.62099552e-06 
       3.83085824e-07       2.81755825e-06      -5.62099638e-06 
      -1.35359832e-07       3.18397590e-06      -6.35294023e-06 
      -4.05559199e-07       3.18397565e-06      -6.35293930e-06 
       1.34244233e-07       3.18397574e-06      -6.35294032e-06 
       4.04443600e-07       3.18397599e-06      -6.35294124e-06 
      -1.35359832e-07       3.18397590e-06      -6.35294023e-06 
      -4.05559199e-07       3.18397565e-06      -6.35293930e-06 
       1.34244233e-07       3.18397574e-06      -6.35294032e-06 
       4.04443600e-07       3.18397599e-06      -6.35294124e-06 
      -1.42381966e-07       3.56997212e-06      -7.12417196e-06 
      -4.26471148e-07       3.56997183e-06      -7.12417096e-06 
       1.41212485e-07       3.56997196e-06      -7.12417208e-06 
       4.25301667e-07       3.56997224e-06      -7.12417308e-06 
      -1.42381966e-07       3.56997212e-06      -7.12417196e-06 
      -4.26471148e-07       3.56997183e-06      -7.12417096e-06 
       1.41212485e-07       3.56997196e-06      -7.12417208e-06 
       4.25301667e-07       3.56997224e-06      -7.12417308e-06 
      -1.49242596e-07       3.97507632e-06      -7.93376983e-06 
      -4.46883729e-07       3.97507601e-06      -7.93376876e-06 
       1.48018893e-07       3.97507617e-06      -7.93376999e-06 
       4.45660025e-07       3.97507648e-06      -7.93377106e-06 
      -1.49242596e-07       3.97507632e-06      -7.93376983e-06 
      -4.46883729e-07       3.97507601e-06      -7.93376876e-06 
       1.48018893e-07       3.97507617e-06      -7.93376999e-06 
       4.45660025e-07       3.97507648e-06      -7.93377106e-06 
      -1.55941717e-07       4.39881800e-06      -8.78081304e-06 
      -4.66796938e-07       4.39881766e-06      -8.78081189e-06 
       1.54663461e-07       4.39881786e-06      -8.78081324e-06 
       4.65518681e-07       4.39881820e-06      -8.78081439e-06 
      -1.55941717e-07       4.39881800e-06      -8.78081304e-06 
      -4.66796938e-07       4.39881766e-06      -8.78081189e-06 
       1.54663461e-07       4.39881786e-06      -8.78081324e-06 
       4.65518681e-07       4.39881820e-06      -8.78081439e-06 
      -1.62479325e-07       4.84072664e-06      -9.66438076e-06 
      -4.86210770e-07       4.84072627e-06      -9.66437954e-06 
       1.61146192e-07       4.84072651e-06      -9.66438100e-06 
       4.84877638e-07       4.84072688e-06      -9.66438222e-06 
      -1.62479325e-07       4.84072664e-06      -9.66438076e-06 
      -4.86210770e-07       4.84072627e-06      -9.66437954e-06 
       1.61146192e-07       4.84072651e-06      -9.66438100e-06 
       4.84877638e-07       4.84072688e-06      -9.66438222e-06 
      -1.68854070e-07       5.30034113e-06      -1.05835699e-05 
      -5.05144039e-07       5.30034074e-06      -1.05835686e-05 
       1.67486167e-07       5.30034102e-06      -1.05835702e-05 
       5.03776136e-07       5.30034141e-06      -1.05835715e-05 
      -1.68854070e-07       5.30034113e-06      -1.05835699e-05 
      -5.05144039e-07       5.30034074e-06      -1.05835686e-05 
       1.67486167e-07       5.30034102e-06      -1.05835702e-05 
       5.03776136e-07       5.30034141e-06      -1.05835715e-05 
      -1.75084780e-07       5.77723743e-06      -1.15375467e-05 
      -5.23635332e-07       5.77723700e-06      -1.15375453e-05 
       1.73681644e-07       5.77723734e-06      -1.15375470e-05 
       5.22232195e-07       5.77723776e-06      -1.15375484e-05 
      -1.75084780e-07       5.77723743e-06      -1.15375467e-05 
      -5.23635332e-07       5.77723700e-06      -1.15375453e-05 
       1.73681644e-07       5.77723734e-06      -1.15375470e-05 
       5.22232195e-07       5.77723776e-06      -1.15375484e-05 
      -1.81171449e-07       6.27100061e-06      -1.25254945e-05 
      -5.41684642e-07       6.27100016e-06      -1.25254930e-05 
       1.79732629e-07       6.27100054e-06      -1.25254949e-05 
       5.40245821e-07       6.27100100e-06      -1.25254963e-05 
      -1.81171449e-07       6.27100061e-06      -1.25254945e-05 
      -5.41684642e-07       6.27100016e-06      -1.25254930e-05 
       1.79732629e-07       6.27100054e-06      -1.25254949e-05 
       5.40245821e-07       6.27100100e-06      -1.25254963e-05 
      -1.87114072e-07       6.78121576e-06      -1.35465964e-05 
      -5.59291965e-07       6.78121528e-06      -1.35465950e-05 
       1.85639126e-07       6.78121572e-06      -1.35465969e-05 
       5.57817019e-07       6.78121620e-06      -1.35465984e-05 
      -1.87114072e-07       6.78121576e-06      -1.35465964e-05 
      -5.59291965e-07       6.78121528e-06      -1.35465950e-05 
       1.85639126e-07       6.78121572e-06      -1.35465969e-05 
       5.57817019e-07       6.78121620e-06      -1.35465984e-05 
      -1.92912644e-07       7.30746797e-06      -1.46000359e-05 
      -5.76457295e-07       7.30746746e-06      -1.46000343e-05 
       1.91401142e-07       7.30746794e-06      -1.46000364e-05 
       5.74945793e-07       7.30746845e-06      -1.46000380e-05 
      -1.92912644e-07       7.30746797e-06      -1.46000359e-05 
      -5.76457295e-07       7.30746746e-06      -1.46000343e-05 
       1.91401142e-07       7.30746794e-06      -1.46000364e-05 
       5.74945793e-07       7.30746845e-06      -1.46000380e-05 
      -1.98567159e-07       7.84934230e-06      -1.56849961e-05 
      -5.93180627e-07       7.84934176e-06      -1.56849945e-05 
       1.97018681e-07       7.84934229e-06      -1.56849966e-05 
       5.91632149e-07       7.84934283e-06      -1.56849983e-05 
      -1.98567159e-07       7.84934230e-06      -1.56849961e-05 
      -5.93180627e-07       7.84934176e-06      -1.56849945e-05 
       1.97018681e-07       7.84934229e-06      -1.56849966e-05 
       5.91632149e-07       7.84934283e-06      -1.56849983e-05 
      -2.04077612e-07       8.40642384e-06      -1.68006603e-05 
      -6.09461956e-07       8.40642327e-06      -1.68006586e-05 
       2.02491750e-07       8.40642386e-06      -1.68006609e-05 
       6.07876094e-07       8.40642443e-06      -1.68006626e-05 
      -2.04077612e-07       8.40642384e-06      -1.68006603e-05 
      -6.09461956e-07       8.40642327e-06      -1.68006586e-05 
       2.02491750e-07       8.40642386e-06      -1.68006609e-05 
       6.07876094e-07       8.40642443e-06      -1.68006626e-05 
      -2.09443995e-07       8.97829767e-06      -1.79462118e-05 
      -6.25301274e-07       8.97829707e-06      -1.79462100e-05 
       2.07820355e-07       8.97829771e-06      -1.79462124e-05 
       6.23677634e-07       8.97829831e-06      -1.79462142e-05 
      -2.09443995e-07       8.97829767e-06      -1.79462118e-05 
      -6.25301274e-07       8.97829707e-06      -1.79462100e-05 
       2.07820355e-07       8.97829771e-06      -1.79462124e-05 
       6.23677634e-07       8.97829831e-06      -1.79462142e-05 
      -2.14666307e-07       9.56454888e-06      -1.91208338e-05 
      -6.40698579e-07       9.56454825e-06      -1.91208319e-05 
       2.13004498e-07       9.56454893e-06      -1.91208345e-05 
       6.39036770e-07       9.56454957e-06      -1.91208363e-05 
      -2.14666307e-07       9.56454888e-06      -1.91208338e-05 
      -6.40698579e-07       9.56454825e-06      -1.91208319e-05 
       2.13004498e-07       9.56454893e-06      -1.91208345e-05 
       6.39036770e-07       9.56454957e-06      -1.91208363e-05 
      -2.19744539e-07       1.01647625e-05      -2.03237096e-05 
      -6.55653864e-07       1.01647619e-05      -2.03237076e-05 
       2.18044188e-07       1.01647626e-05      -2.03237103e-05 
       6.53953512e-07       1.01647633e-05      -2.03237122e-05 
      -2.19744540e-07       1.01647625e-05      -2.03237096e-05 
      -6.55653864e-07       1.01647619e-05      -2.03237076e-05 
       2.18044188e-07       1.01647626e-05      -2.03237103e-05 
       6.53953512e-07       1.01647633e-05      -2.03237122e-05 
      -2.24680493e-07       1.07785330e-05      -2.15540396e-05 
      -6.70188879e-07       1.07785323e-05      -2.15540376e-05 
       2.22954784e-07       1.07785331e-05      -2.15540404e-05 
       6.68463171e-07       1.07785338e-05      -2.15540424e-05 
      -2.24680493e-07       1.07785330e-05      -2.15540396e-05 
      -6.70188879e-07       1.07785323e-05      -2.15540376e-05 
       2.22954784e-07       1.07785331e-05      -2.15540404e-05 
       6.68463171e-07       1.07785338e-05      -2.15540424e-05 
      -2.29489793e-07       1.14054915e-05      -2.28110935e-05 
      -6.84339000e-07       1.14054908e-05      -2.28110915e-05 
       2.27738282e-07       1.14054916e-05      -2.28110944e-05 
       6.82587489e-07       1.14054924e-05      -2.28110964e-05 
      -2.29489793e-07       1.14054915e-05      -2.28110935e-05 
      -6.84339000e-07       1.14054908e-05      -2.28110915e-05 
       2.27738282e-07       1.14054916e-05      -2.28110944e-05 
       6.82587489e-07       1.14054924e-05      -2.28110964e-05 
      -2.34172434e-07       1.20452784e-05      -2.40941583e-05 
      -6.98104220e-07       1.20452777e-05      -2.40941562e-05 
       2.32394687e-07       1.20452786e-05      -2.40941592e-05 
       6.96326472e-07       1.20452793e-05      -2.40941613e-05 
      -2.34172434e-07       1.20452784e-05      -2.40941583e-05 
      -6.98104220e-07       1.20452777e-05      -2.40941562e-05 
       2.32394687e-07       1.20452786e-05      -2.40941592e-05 
       6.96326472e-07       1.20452793e-05      -2.40941613e-05 
      -2.38728411e-07       1.26975341e-05      -2.54025209e-05 
      -7.11484534e-07       1.26975334e-05      -2.54025187e-05 
       2.36924003e-07       1.26975343e-05      -2.54025219e-05 
       7.09680126e-07       1.26975351e-05      -2.54025240e-05 
      -2.38728411e-07       1.26975341e-05      -2.54025209e-05 
      -7.11484534e-07       1.26975334e-05      -2.54025187e-05 
       2.36924003e-07       1.26975343e-05      -2.54025219e-05 
       7.09680126e-07       1.26975351e-05      -2.54025240e-05 
      -2.43157718e-07       1.33618990e-05      -2.67354683e-05 
      -7.24479937e-07       1.33618982e-05      -2.67354661e-05 
       2.41326238e-07       1.33618992e-05      -2.67354693e-05 
       7.22648457e-07       1.33619000e-05      -2.67354716e-05 
      -2.43157718e-07       1.33618990e-05      -2.67354683e-05 
      -7.24479937e-07       1.33618982e-05      -2.67354661e-05 
       2.41326238e-07       1.33618992e-05      -2.67354693e-05 
       7.22648457e-07       1.33619000e-05      -2.67354716e-05 
      -2.47460348e-07       1.40380133e-05      -2.80922876e-05 
      -7.37090422e-07       1.40380125e-05      -2.80922853e-05 
       2.45601398e-07       1.40380136e-05      -2.80922886e-05 
       7.35231470e-07       1.40380144e-05      -2.80922909e-05 
      -2.47460348e-07       1.40380133e-05      -2.80922876e-05 
      -7.37090422e-07       1.40380125e-05      -2.80922853e-05 
       2.45601398e-07       1.40380136e-05      -2.80922886e-05 
       7.35231470e-07       1.40380144e-05      -2.80922909e-05 
      -2.51636297e-07       1.47255176e-05      -2.94722656e-05 
      -7.49315982e-07       1.47255167e-05      -2.94722633e-05 
       2.49749488e-07       1.47255178e-05      -2.94722667e-05 
       7.47429173e-07       1.47255187e-05      -2.94722691e-05 
      -2.51636297e-07       1.47255176e-05      -2.94722656e-05 
      -7.49315982e-07       1.47255167e-05      -2.94722633e-05 
       2.49749488e-07       1.47255178e-05      -2.94722667e-05 
       7.47429173e-07       1.47255187e-05      -2.94722691e-05 
      -2.55685555e-07       1.54240520e-05      -3.08746894e-05 
      -7.61156610e-07       1.54240512e-05      -3.08746870e-05 
       2.53770516e-07       1.54240523e-05      -3.08746906e-05 
       7.59241571e-07       1.54240532e-05      -3.08746930e-05 
      -2.55685555e-07       1.54240520e-05      -3.08746894e-05 
      -7.61156610e-07       1.54240512e-05      -3.08746870e-05 