# vtk DataFile Version 2.0
./output/onsasExample_BladeCantileverBeamNoPitch_windVel3DDynamic 3D/onsasExample_BladeCantileverBeamNoPitch_windVel3DDynamic 3D_0398.vtk
ASCII
DATASET UNSTRUCTURED_GRID

POINTS 800 float
      -1.500642e-23      -7.180703e-02      -7.180703e-02 
      -8.766879e-24       7.180703e-02      -7.180703e-02 
       1.500642e-23       7.180703e-02       7.180703e-02 
       8.766879e-24      -7.180703e-02       7.180703e-02 
       2.000000e-01      -7.180702e-02      -7.180706e-02 
       2.000000e-01       7.180705e-02      -7.180706e-02 
       2.000000e-01       7.180705e-02       7.180700e-02 
       2.000000e-01      -7.180702e-02       7.180700e-02 
       2.000000e-01      -7.180702e-02      -7.180706e-02 
       2.000000e-01       7.180705e-02      -7.180706e-02 
       2.000000e-01       7.180705e-02       7.180700e-02 
       2.000000e-01      -7.180702e-02       7.180700e-02 
       4.000000e-01      -7.180698e-02      -7.180715e-02 
       3.999999e-01       7.180709e-02      -7.180715e-02 
       4.000000e-01       7.180709e-02       7.180692e-02 
       4.000001e-01      -7.180698e-02       7.180692e-02 
       4.000000e-01      -7.180698e-02      -7.180715e-02 
       3.999999e-01       7.180709e-02      -7.180715e-02 
       4.000000e-01       7.180709e-02       7.180692e-02 
       4.000001e-01      -7.180698e-02       7.180692e-02 
       6.000000e-01      -7.180691e-02      -7.180729e-02 
       5.999999e-01       7.180716e-02      -7.180729e-02 
       6.000000e-01       7.180716e-02       7.180678e-02 
       6.000001e-01      -7.180691e-02       7.180678e-02 
       6.000000e-01      -7.180691e-02      -7.180729e-02 
       5.999999e-01       7.180716e-02      -7.180729e-02 
       6.000000e-01       7.180716e-02       7.180678e-02 
       6.000001e-01      -7.180691e-02       7.180678e-02 
       8.000000e-01      -7.180682e-02      -7.180749e-02 
       7.999999e-01       7.180725e-02      -7.180749e-02 
       8.000000e-01       7.180725e-02       7.180658e-02 
       8.000001e-01      -7.180682e-02       7.180658e-02 
       8.000000e-01      -7.180682e-02      -7.180749e-02 
       7.999999e-01       7.180725e-02      -7.180749e-02 
       8.000000e-01       7.180725e-02       7.180658e-02 
       8.000001e-01      -7.180682e-02       7.180658e-02 
       9.999999e-01      -7.180670e-02      -7.180774e-02 
       9.999999e-01       7.180737e-02      -7.180774e-02 
       1.000000e+00       7.180737e-02       7.180633e-02 
       1.000000e+00      -7.180670e-02       7.180633e-02 
       9.999999e-01      -7.180670e-02      -7.180774e-02 
       9.999999e-01       7.180737e-02      -7.180774e-02 
       1.000000e+00       7.180737e-02       7.180633e-02 
       1.000000e+00      -7.180670e-02       7.180633e-02 
       1.200000e+00      -7.180655e-02      -7.180804e-02 
       1.200000e+00       7.180751e-02      -7.180804e-02 
       1.200000e+00       7.180751e-02       7.180602e-02 
       1.200000e+00      -7.180655e-02       7.180602e-02 
       1.200000e+00      -7.180655e-02      -7.180804e-02 
       1.200000e+00       7.180751e-02      -7.180804e-02 
       1.200000e+00       7.180751e-02       7.180602e-02 
       1.200000e+00      -7.180655e-02       7.180602e-02 
       1.400000e+00      -7.180639e-02      -7.180840e-02 
       1.400000e+00       7.180768e-02      -7.180840e-02 
       1.400000e+00       7.180768e-02       7.180567e-02 
       1.400000e+00      -7.180639e-02       7.180567e-02 
       1.400000e+00      -7.180639e-02      -7.180840e-02 
       1.400000e+00       7.180768e-02      -7.180840e-02 
       1.400000e+00       7.180768e-02       7.180567e-02 
       1.400000e+00      -7.180639e-02       7.180567e-02 
       1.600000e+00      -7.180619e-02      -7.180881e-02 
       1.600000e+00       7.180787e-02      -7.180881e-02 
       1.600000e+00       7.180787e-02       7.180526e-02 
       1.600000e+00      -7.180619e-02       7.180526e-02 
       1.600000e+00      -7.180619e-02      -7.180881e-02 
       1.600000e+00       7.180787e-02      -7.180881e-02 
       1.600000e+00       7.180787e-02       7.180526e-02 
       1.600000e+00      -7.180619e-02       7.180526e-02 
       1.800000e+00      -7.180598e-02      -7.180927e-02 
       1.800000e+00       7.180809e-02      -7.180927e-02 
       1.800000e+00       7.180809e-02       7.180480e-02 
       1.800000e+00      -7.180598e-02       7.180480e-02 
       1.800000e+00      -7.180598e-02      -7.180927e-02 
       1.800000e+00       7.180809e-02      -7.180927e-02 
       1.800000e+00       7.180809e-02       7.180480e-02 
       1.800000e+00      -7.180598e-02       7.180480e-02 
       2.000000e+00      -7.180574e-02      -7.180977e-02 
       2.000000e+00       7.180833e-02      -7.180977e-02 
       2.000000e+00       7.180833e-02       7.180429e-02 
       2.000000e+00      -7.180574e-02       7.180429e-02 
       2.000000e+00      -7.180574e-02      -7.180977e-02 
       2.000000e+00       7.180833e-02      -7.180977e-02 
       2.000000e+00       7.180833e-02       7.180429e-02 
       2.000000e+00      -7.180574e-02       7.180429e-02 
       2.200000e+00      -7.180548e-02      -7.181033e-02 
       2.200000e+00       7.180859e-02      -7.181033e-02 
       2.200000e+00       7.180859e-02       7.180374e-02 
       2.200000e+00      -7.180548e-02       7.180374e-02 
       2.200000e+00      -7.180548e-02      -7.181033e-02 
       2.200000e+00       7.180859e-02      -7.181033e-02 
       2.200000e+00       7.180859e-02       7.180374e-02 
       2.200000e+00      -7.180548e-02       7.180374e-02 
       2.400000e+00      -7.180520e-02      -7.181093e-02 
       2.400000e+00       7.180887e-02      -7.181093e-02 
       2.400000e+00       7.180887e-02       7.180314e-02 
       2.400000e+00      -7.180520e-02       7.180314e-02 
       2.400000e+00      -7.180520e-02      -7.181093e-02 
       2.400000e+00       7.180887e-02      -7.181093e-02 
       2.400000e+00       7.180887e-02       7.180314e-02 
       2.400000e+00      -7.180520e-02       7.180314e-02 
       2.600000e+00      -7.180489e-02      -7.181157e-02 
       2.600000e+00       7.180917e-02      -7.181157e-02 
       2.600000e+00       7.180917e-02       7.180249e-02 
       2.600000e+00      -7.180489e-02       7.180249e-02 
       2.600000e+00      -7.180489e-02      -7.181157e-02 
       2.600000e+00       7.180917e-02      -7.181157e-02 
       2.600000e+00       7.180917e-02       7.180249e-02 
       2.600000e+00      -7.180489e-02       7.180249e-02 
       2.800000e+00      -7.180457e-02      -7.181226e-02 
       2.800000e+00       7.180950e-02      -7.181226e-02 
       2.800000e+00       7.180950e-02       7.180180e-02 
       2.800000e+00      -7.180457e-02       7.180180e-02 
       2.800000e+00      -7.180457e-02      -7.181226e-02 
       2.800000e+00       7.180950e-02      -7.181226e-02 
       2.800000e+00       7.180950e-02       7.180180e-02 
       2.800000e+00      -7.180457e-02       7.180180e-02 
       3.000000e+00      -7.180422e-02      -7.181300e-02 
       3.000000e+00       7.180985e-02      -7.181300e-02 
       3.000000e+00       7.180985e-02       7.180107e-02 
       3.000000e+00      -7.180422e-02       7.180107e-02 
       3.000000e+00      -7.180422e-02      -7.181300e-02 
       3.000000e+00       7.180985e-02      -7.181300e-02 
       3.000000e+00       7.180985e-02       7.180107e-02 
       3.000000e+00      -7.180422e-02       7.180107e-02 
       3.200000e+00      -7.180385e-02      -7.181378e-02 
       3.200000e+00       7.181021e-02      -7.181378e-02 
       3.200000e+00       7.181021e-02       7.180029e-02 
       3.200000e+00      -7.180385e-02       7.180029e-02 
       3.200000e+00      -7.180385e-02      -7.181378e-02 
       3.200000e+00       7.181021e-02      -7.181378e-02 
       3.200000e+00       7.181021e-02       7.180029e-02 
       3.200000e+00      -7.180385e-02       7.180029e-02 
       3.400000e+00      -7.180347e-02      -7.181459e-02 
       3.400000e+00       7.181060e-02      -7.181459e-02 
       3.400000e+00       7.181060e-02       7.179947e-02 
       3.400000e+00      -7.180347e-02       7.179947e-02 
       3.400000e+00      -7.180347e-02      -7.181459e-02 
       3.400000e+00       7.181060e-02      -7.181459e-02 
       3.400000e+00       7.181060e-02       7.179947e-02 
       3.400000e+00      -7.180347e-02       7.179947e-02 
       3.600000e+00      -7.180307e-02      -7.181546e-02 
       3.600000e+00       7.181100e-02      -7.181546e-02 
       3.600000e+00       7.181100e-02       7.179861e-02 
       3.600000e+00      -7.180307e-02       7.179861e-02 
       3.600000e+00      -7.180307e-02      -7.181546e-02 
       3.600000e+00       7.181100e-02      -7.181546e-02 
       3.600000e+00       7.181100e-02       7.179861e-02 
       3.600000e+00      -7.180307e-02       7.179861e-02 
       3.800000e+00      -7.180264e-02      -7.181636e-02 
       3.800000e+00       7.181142e-02      -7.181636e-02 
       3.800000e+00       7.181142e-02       7.179771e-02 
       3.800000e+00      -7.180264e-02       7.179771e-02 
       3.800000e+00      -7.180264e-02      -7.181636e-02 
       3.800000e+00       7.181142e-02      -7.181636e-02 
       3.800000e+00       7.181142e-02       7.179771e-02 
       3.800000e+00      -7.180264e-02       7.179771e-02 
       4.000000e+00      -7.180220e-02      -7.181730e-02 
       3.999999e+00       7.181186e-02      -7.181730e-02 
       4.000000e+00       7.181186e-02       7.179677e-02 
       4.000001e+00      -7.180220e-02       7.179677e-02 
       4.000000e+00      -7.180220e-02      -7.181730e-02 
       3.999999e+00       7.181186e-02      -7.181730e-02 
       4.000000e+00       7.181186e-02       7.179677e-02 
       4.000001e+00      -7.180220e-02       7.179677e-02 
       4.200000e+00      -7.180174e-02      -7.181827e-02 
[...]
POINT_DATA       800 
VECTORS Displacements float
      -1.50064212e-23       0.00000000e+00      -1.38777878e-17 
      -8.76687863e-24       1.38777878e-17       0.00000000e+00 
       1.50064212e-23       0.00000000e+00       1.38777878e-17 
       8.76687863e-24      -1.38777878e-17       0.00000000e+00 
      -1.09632550e-08       1.37254997e-08      -2.89741214e-08 
      -3.06118858e-08       1.37254983e-08      -2.89740827e-08 
       1.08720529e-08       1.37254653e-08      -2.89740887e-08 
       3.05206837e-08       1.37254666e-08      -2.89741274e-08 
      -1.09632550e-08       1.37254997e-08      -2.89741214e-08 
      -3.06118858e-08       1.37254983e-08      -2.89740827e-08 
       1.08720529e-08       1.37254653e-08      -2.89740887e-08 
       3.05206837e-08       1.37254666e-08      -2.89741274e-08 
      -2.17350287e-08       5.45505058e-08      -1.15189267e-07 
      -6.06537339e-08       5.45505005e-08      -1.15189184e-07 
       2.15524328e-08       5.45504400e-08      -1.15189208e-07 
       6.04711379e-08       5.45504452e-08      -1.15189291e-07 
      -2.17350287e-08       5.45505058e-08      -1.15189267e-07 
      -6.06537339e-08       5.45505005e-08      -1.15189184e-07 
       2.15524328e-08       5.45504400e-08      -1.15189208e-07 
       6.04711379e-08       5.45504452e-08      -1.15189291e-07 
      -3.23153193e-08       1.21947833e-07      -2.57584662e-07 
      -9.01255425e-08       1.21947821e-07      -2.57584530e-07 
       3.20411412e-08       1.21947738e-07      -2.57584582e-07 
       8.98513643e-08       1.21947750e-07      -2.57584714e-07 
      -3.23153193e-08       1.21947833e-07      -2.57584662e-07 
      -9.01255425e-08       1.21947821e-07      -2.57584530e-07 
       3.20411412e-08       1.21947738e-07      -2.57584582e-07 
       8.98513643e-08       1.21947750e-07      -2.57584714e-07 
      -4.27041250e-08       2.15390295e-07      -4.55099533e-07 
      -1.19027310e-07       2.15390275e-07      -4.55099346e-07 
       4.23381803e-08       2.15390174e-07      -4.55099437e-07 
       1.18661365e-07       2.15390194e-07      -4.55099623e-07 
      -4.27041250e-08       2.15390295e-07      -4.55099533e-07 
      -1.19027310e-07       2.15390275e-07      -4.55099346e-07 
       4.23381803e-08       2.15390174e-07      -4.55099437e-07 
       1.18661365e-07       2.15390194e-07      -4.55099623e-07 
      -5.29014441e-08       3.34350707e-07      -7.06673104e-07 
      -1.47359034e-07       3.34350676e-07      -7.06672859e-07 
       5.24435517e-08       3.34350562e-07      -7.06672998e-07 
       1.46901141e-07       3.34350593e-07      -7.06673243e-07 
      -5.29014441e-08       3.34350707e-07      -7.06673104e-07 
      -1.47359034e-07       3.34350676e-07      -7.06672859e-07 
       5.24435517e-08       3.34350562e-07      -7.06672998e-07 
       1.46901141e-07       3.34350593e-07      -7.06673243e-07 
      -6.29072749e-08       4.78301882e-07      -1.01124460e-06 
      -1.75120713e-07       4.78301838e-07      -1.01124429e-06 
       6.23572567e-08       4.78301716e-07      -1.01124449e-06 
       1.74570695e-07       4.78301760e-07      -1.01124480e-06 
      -6.29072749e-08       4.78301882e-07      -1.01124460e-06 
      -1.75120713e-07       4.78301838e-07      -1.01124429e-06 
       6.23572567e-08       4.78301716e-07      -1.01124449e-06 
       1.74570695e-07       4.78301760e-07      -1.01124480e-06 
      -7.27216150e-08       6.46716636e-07      -1.36775325e-06 
      -2.02312346e-07       6.46716578e-07      -1.36775287e-06 
       7.20792983e-08       6.46716451e-07      -1.36775314e-06 
       2.01670029e-07       6.46716509e-07      -1.36775351e-06 
      -7.27216150e-08       6.46716636e-07      -1.36775325e-06 
      -2.02312346e-07       6.46716578e-07      -1.36775287e-06 
       7.20792983e-08       6.46716451e-07      -1.36775314e-06 
       2.01670029e-07       6.46716509e-07      -1.36775351e-06 
      -8.23444632e-08       8.39067783e-07      -1.77513828e-06 
      -2.28933930e-07       8.39067708e-07      -1.77513783e-06 
       8.16096772e-08       8.39067580e-07      -1.77513817e-06 
       2.28199144e-07       8.39067655e-07      -1.77513861e-06 
      -8.23444632e-08       8.39067783e-07      -1.77513828e-06 
      -2.28933930e-07       8.39067708e-07      -1.77513783e-06 
       8.16096772e-08       8.39067580e-07      -1.77513817e-06 
       2.28199144e-07       8.39067655e-07      -1.77513861e-06 
      -9.17758176e-08       1.05482814e-06      -2.23233890e-06 
      -2.54985464e-07       1.05482804e-06      -2.23233839e-06 
       9.09483955e-08       1.05482792e-06      -2.23233880e-06 
       2.54158042e-07       1.05482801e-06      -2.23233932e-06 
      -9.17758176e-08       1.05482814e-06      -2.23233890e-06 
      -2.54985464e-07       1.05482804e-06      -2.23233839e-06 
       9.09483955e-08       1.05482792e-06      -2.23233880e-06 
       2.54158042e-07       1.05482801e-06      -2.23233932e-06 
      -1.01015676e-07       1.29347051e-06      -2.73829436e-06 
      -2.80466946e-07       1.29347040e-06      -2.73829376e-06 
       1.00095455e-07       1.29347028e-06      -2.73829427e-06 
       2.79546724e-07       1.29347039e-06      -2.73829486e-06 
      -1.01015676e-07       1.29347051e-06      -2.73829436e-06 
      -2.80466946e-07       1.29347040e-06      -2.73829376e-06 
       1.00095455e-07       1.29347028e-06      -2.73829427e-06 
       2.79546724e-07       1.29347039e-06      -2.73829487e-06 
      -1.10057757e-07       1.55447711e-06      -3.29196154e-06 
      -3.05392188e-07       1.55447698e-06      -3.29196088e-06 
       1.09074624e-07       1.55447688e-06      -3.29196148e-06 
       3.04409055e-07       1.55447701e-06      -3.29196214e-06 
      -1.10057757e-07       1.55447711e-06      -3.29196154e-06 
      -3.05392188e-07       1.55447698e-06      -3.29196088e-06 
       1.09074624e-07       1.55447688e-06      -3.29196148e-06 
       3.04409055e-07       1.55447701e-06      -3.29196214e-06 
      -1.18925244e-07       1.83736693e-06      -3.89236528e-06 
      -3.29803904e-07       1.83736678e-06      -3.89236455e-06 
       1.17878772e-07       1.83736670e-06      -3.89236525e-06 
       3.28757432e-07       1.83736686e-06      -3.89236598e-06 
      -1.18925244e-07       1.83736693e-06      -3.89236528e-06 
      -3.29803904e-07       1.83736678e-06      -3.89236455e-06 
       1.17878772e-07       1.83736670e-06      -3.89236525e-06 
       3.28757432e-07       1.83736686e-06      -3.89236598e-06 
      -1.27618133e-07       2.14166797e-06      -4.53854669e-06 
      -3.53702089e-07       2.14166780e-06      -4.53854589e-06 
       1.26507900e-07       2.14166775e-06      -4.53854669e-06 
       3.52591856e-07       2.14166793e-06      -4.53854749e-06 
      -1.27618133e-07       2.14166797e-06      -4.53854669e-06 
      -3.53702089e-07       2.14166780e-06      -4.53854589e-06 
       1.26507900e-07       2.14166775e-06      -4.53854669e-06 
       3.52591856e-07       2.14166793e-06      -4.53854749e-06 
      -1.36136420e-07       2.46690823e-06      -5.22954688e-06 
      -3.77086738e-07       2.46690803e-06      -5.22954601e-06 
       1.34962015e-07       2.46690801e-06      -5.22954692e-06 
       3.75912333e-07       2.46690822e-06      -5.22954780e-06 
      -1.36136420e-07       2.46690823e-06      -5.22954688e-06 
      -3.77086738e-07       2.46690803e-06      -5.22954601e-06 
       1.34962015e-07       2.46690801e-06      -5.22954692e-06 
       3.75912333e-07       2.46690822e-06      -5.22954780e-06 
      -1.44480100e-07       2.81261570e-06      -5.96440697e-06 
      -3.99957848e-07       2.81261547e-06      -5.96440602e-06 
       1.43241121e-07       2.81261549e-06      -5.96440705e-06 
       3.98718869e-07       2.81261571e-06      -5.96440800e-06 
      -1.44480100e-07       2.81261570e-06      -5.96440697e-06 
      -3.99957848e-07       2.81261547e-06      -5.96440602e-06 
       1.43241121e-07       2.81261549e-06      -5.96440705e-06 
       3.98718869e-07       2.81261571e-06      -5.96440800e-06 
      -1.52649170e-07       3.17831837e-06      -6.74216807e-06 
      -4.22315414e-07       3.17831812e-06      -6.74216704e-06 
       1.51345221e-07       3.17831817e-06      -6.74216819e-06 
       4.21011466e-07       3.17831842e-06      -6.74216921e-06 
      -1.52649170e-07       3.17831837e-06      -6.74216807e-06 
      -4.22315414e-07       3.17831812e-06      -6.74216704e-06 
       1.51345221e-07       3.17831817e-06      -6.74216819e-06 
       4.21011466e-07       3.17831842e-06      -6.74216921e-06 
      -1.60643622e-07       3.56354424e-06      -7.56187128e-06 
      -4.44159430e-07       3.56354396e-06      -7.56187017e-06 
       1.59274322e-07       3.56354404e-06      -7.56187144e-06 
       4.42790130e-07       3.56354432e-06      -7.56187255e-06 
      -1.60643622e-07       3.56354424e-06      -7.56187128e-06 
      -4.44159430e-07       3.56354396e-06      -7.56187017e-06 
       1.59274322e-07       3.56354404e-06      -7.56187144e-06 
       4.42790130e-07       3.56354432e-06      -7.56187255e-06 
      -1.68463455e-07       3.96782130e-06      -8.42255772e-06 
      -4.65489893e-07       3.96782099e-06      -8.42255654e-06 
       1.67028427e-07       3.96782112e-06      -8.42255793e-06 
       4.64054864e-07       3.96782142e-06      -8.42255911e-06 
      -1.68463455e-07       3.96782130e-06      -8.42255772e-06 
      -4.65489893e-07       3.96782099e-06      -8.42255654e-06 
       1.67028427e-07       3.96782112e-06      -8.42255793e-06 
       4.64054864e-07       3.96782142e-06      -8.42255911e-06 
      -1.76108663e-07       4.39067755e-06      -9.32326851e-06 
      -4.86306798e-07       4.39067721e-06      -9.32326724e-06 
       1.74607540e-07       4.39067738e-06      -9.32326876e-06 
       4.84805676e-07       4.39067771e-06      -9.32327003e-06 
      -1.76108663e-07       4.39067755e-06      -9.32326851e-06 
      -4.86306798e-07       4.39067721e-06      -9.32326724e-06 
       1.74607540e-07       4.39067738e-06      -9.32326876e-06 
       4.84805676e-07       4.39067771e-06      -9.32327003e-06 
      -1.83579242e-07       4.83164098e-06      -1.02630447e-05 
      -5.06610142e-07       4.83164062e-06      -1.02630434e-05 
       1.82011666e-07       4.83164082e-06      -1.02630450e-05 
       5.05042565e-07       4.83164118e-06      -1.02630464e-05 
      -1.83579243e-07       4.83164098e-06      -1.02630447e-05 
      -5.06610142e-07       4.83164062e-06      -1.02630434e-05 
       1.82011665e-07       4.83164082e-06      -1.02630450e-05 
       5.05042565e-07       4.83164118e-06      -1.02630464e-05 
      -1.90872499e-07       5.29024868e-06      -1.12409440e-05 
      -5.26416878e-07       5.29024828e-06      -1.12409425e-05 
       1.89259658e-07       5.29024853e-06      -1.12409443e-05 
       5.24804037e-07       5.29024892e-06      -1.12409458e-05 
      -1.90872499e-07       5.29024868e-06      -1.12409440e-05 
      -5.26416878e-07       5.29024828e-06      -1.12409425e-05 
       1.89259658e-07       5.29024853e-06      -1.12409443e-05 
       5.24804037e-07       5.29024892e-06      -1.12409458e-05 
      -1.98008089e-07       5.76607446e-06      -1.22560918e-05 
      -5.45766588e-07       5.76607404e-06      -1.22560903e-05 
       1.96349468e-07       5.76607434e-06      -1.22560922e-05 
       5.44107968e-07       5.76607476e-06      -1.22560937e-05 
      -1.98008089e-07       5.76607446e-06      -1.22560918e-05 
      -5.45766588e-07       5.76607404e-06      -1.22560903e-05 
       1.96349468e-07       5.76607434e-06      -1.22560922e-05 
       5.44107968e-07       5.76607476e-06      -1.22560937e-05 
      -2.04986006e-07       6.25870144e-06      -1.33076315e-05 
      -5.64659265e-07       6.25870099e-06      -1.33076299e-05 
       2.03281106e-07       6.25870134e-06      -1.33076320e-05 
       5.62954365e-07       6.25870179e-06      -1.33076336e-05 
      -2.04986006e-07       6.25870144e-06      -1.33076315e-05 
      -5.64659265e-07       6.25870099e-06      -1.33076299e-05 
       2.03281106e-07       6.25870134e-06      -1.33076320e-05 
       5.62954365e-07       6.25870179e-06      -1.33076336e-05 
      -2.11806245e-07       6.76771272e-06      -1.43947063e-05 
      -5.83094906e-07       6.76771224e-06      -1.43947047e-05 
       2.10054572e-07       6.76771264e-06      -1.43947069e-05 
       5.81343234e-07       6.76771312e-06      -1.43947085e-05 
      -2.11806245e-07       6.76771272e-06      -1.43947063e-05 
      -5.83094906e-07       6.76771224e-06      -1.43947047e-05 
       2.10054572e-07       6.76771264e-06      -1.43947069e-05 
       5.81343234e-07       6.76771312e-06      -1.43947085e-05 
      -2.18468799e-07       7.29269141e-06      -1.55164595e-05 
      -6.01073503e-07       7.29269090e-06      -1.55164578e-05 
       2.16669877e-07       7.29269135e-06      -1.55164601e-05 
       5.99274580e-07       7.29269186e-06      -1.55164618e-05 
      -2.18468799e-07       7.29269141e-06      -1.55164595e-05 
      -6.01073503e-07       7.29269090e-06      -1.55164578e-05 
       2.16669877e-07       7.29269135e-06      -1.55164601e-05 
       5.99274580e-07       7.29269186e-06      -1.55164618e-05 
      -2.24973663e-07       7.83322061e-06      -1.66720343e-05 
      -6.18595050e-07       7.83322007e-06      -1.66720325e-05 
       2.23127024e-07       7.83322058e-06      -1.66720349e-05 
       6.16748410e-07       7.83322112e-06      -1.66720367e-05 
      -2.24973663e-07       7.83322061e-06      -1.66720343e-05 
      -6.18595050e-07       7.83322007e-06      -1.66720325e-05 
       2.23127024e-07       7.83322058e-06      -1.66720349e-05 
       6.16748410e-07       7.83322112e-06      -1.66720367e-05 
      -2.31320831e-07       8.38888344e-06      -1.78605739e-05 
      -6.35659541e-07       8.38888287e-06      -1.78605721e-05 
       2.29426019e-07       8.38888342e-06      -1.78605747e-05 
       6.33764730e-07       8.38888399e-06      -1.78605765e-05 
      -2.31320831e-07       8.38888344e-06      -1.78605739e-05 
      -6.35659541e-07       8.38888287e-06      -1.78605721e-05 
       2.29426019e-07       8.38888342e-06      -1.78605747e-05 
       6.33764730e-07       8.38888399e-06      -1.78605765e-05 
      -2.37510294e-07       8.95926299e-06      -1.90812217e-05 
      -6.52266969e-07       8.95926239e-06      -1.90812197e-05 
       2.35566871e-07       8.95926300e-06      -1.90812225e-05 
       6.50323546e-07       8.95926359e-06      -1.90812244e-05 
      -2.37510294e-07       8.95926299e-06      -1.90812217e-05 
      -6.52266969e-07       8.95926239e-06      -1.90812197e-05 
       2.35566871e-07       8.95926300e-06      -1.90812225e-05 
       6.50323546e-07       8.95926359e-06      -1.90812244e-05 
      -2.43542051e-07       9.54394237e-06      -2.03331208e-05 
      -6.68417331e-07       9.54394174e-06      -2.03331188e-05 
       2.41549583e-07       9.54394240e-06      -2.03331217e-05 
       6.66424863e-07       9.54394303e-06      -2.03331237e-05 
      -2.43542051e-07       9.54394237e-06      -2.03331208e-05 
      -6.68417331e-07       9.54394174e-06      -2.03331188e-05 
       2.41549583e-07       9.54394240e-06      -2.03331217e-05 
       6.66424863e-07       9.54394303e-06      -2.03331237e-05 
      -2.49416093e-07       1.01425047e-05      -2.16154146e-05 
      -6.84110620e-07       1.01425040e-05      -2.16154125e-05 
       2.47374161e-07       1.01425047e-05      -2.16154155e-05 
       6.82068688e-07       1.01425054e-05      -2.16154176e-05 
      -2.49416094e-07       1.01425047e-05      -2.16154146e-05 
      -6.84110620e-07       1.01425040e-05      -2.16154125e-05 
       2.47374161e-07       1.01425047e-05      -2.16154155e-05 
       6.82068687e-07       1.01425054e-05      -2.16154176e-05 
      -2.55133279e-07       1.07545421e-05      -2.29272628e-05 
      -6.99367403e-07       1.07545415e-05      -2.29272606e-05 
       2.53056354e-07       1.07545422e-05      -2.29272637e-05 
       6.97290478e-07       1.07545429e-05      -2.29272659e-05 
      -2.55133279e-07       1.07545421e-05      -2.29272628e-05 
      -6.99367403e-07       1.07545415e-05      -2.29272606e-05 
       2.53056354e-07       1.07545422e-05      -2.29272637e-05 
       6.97290478e-07       1.07545429e-05      -2.29272659e-05 
      -2.60710347e-07       1.13796840e-05      -2.42678948e-05 
      -7.14224583e-07       1.13796832e-05      -2.42678926e-05 
       2.58597930e-07       1.13796841e-05      -2.42678959e-05 
       7.12112167e-07       1.13796848e-05      -2.42678981e-05 
      -2.60710347e-07       1.13796840e-05      -2.42678948e-05 
      -7.14224583e-07       1.13796832e-05      -2.42678926e-05 
       2.58597930e-07       1.13796841e-05      -2.42678959e-05 
       7.12112167e-07       1.13796848e-05      -2.42678981e-05 
      -2.66147290e-07       1.20175688e-05      -2.56365585e-05 
      -7.28682155e-07       1.20175680e-05      -2.56365562e-05 
       2.63998897e-07       1.20175689e-05      -2.56365596e-05 
       7.26533761e-07       1.20175697e-05      -2.56365620e-05 
      -2.66147290e-07       1.20175688e-05      -2.56365585e-05 
      -7.28682155e-07       1.20175680e-05      -2.56365562e-05 
       2.63998897e-07       1.20175689e-05      -2.56365596e-05 
       7.26533761e-07       1.20175697e-05      -2.56365620e-05 
      -2.71444105e-07       1.26678352e-05      -2.70325015e-05 
      -7.42740111e-07       1.26678345e-05      -2.70324991e-05 
       2.69259259e-07       1.26678354e-05      -2.70325026e-05 
       7.40555266e-07       1.26678362e-05      -2.70325050e-05 
      -2.71444105e-07       1.26678352e-05      -2.70325015e-05 
      -7.42740111e-07       1.26678345e-05      -2.70324991e-05 
       2.69259259e-07       1.26678354e-05      -2.70325026e-05 
       7.40555266e-07       1.26678362e-05      -2.70325050e-05 
      -2.76600781e-07       1.33301220e-05      -2.84549713e-05 
      -7.56398445e-07       1.33301212e-05      -2.84549689e-05 
       2.74379025e-07       1.33301222e-05      -2.84549726e-05 
       7.54176689e-07       1.33301230e-05      -2.84549750e-05 
      -2.76600781e-07       1.33301220e-05      -2.84549713e-05 
      -7.56398445e-07       1.33301212e-05      -2.84549689e-05 
       2.74379025e-07       1.33301222e-05      -2.84549726e-05 
       7.54176689e-07       1.33301230e-05      -2.84549750e-05 
      -2.81617316e-07       1.40040676e-05      -2.99032158e-05 
      -7.69657150e-07       1.40040668e-05      -2.99032133e-05 
       2.79358201e-07       1.40040678e-05      -2.99032171e-05 
       7.67398036e-07       1.40040686e-05      -2.99032197e-05 
      -2.81617316e-07       1.40040676e-05      -2.99032158e-05 
      -7.69657150e-07       1.40040668e-05      -2.99032133e-05 
       2.79358201e-07       1.40040678e-05      -2.99032171e-05 
       7.67398036e-07       1.40040686e-05      -2.99032197e-05 
      -2.86493700e-07       1.46893108e-05      -3.13764826e-05 
      -7.82516221e-07       1.46893099e-05      -3.13764800e-05 
       2.84196793e-07       1.46893110e-05      -3.13764840e-05 
       7.80219313e-07       1.46893119e-05      -3.13764866e-05 
      -2.86493700e-07       1.46893108e-05      -3.13764826e-05 
      -7.82516221e-07       1.46893099e-05      -3.13764800e-05 
       2.84196793e-07       1.46893110e-05      -3.13764840e-05 
       7.80219313e-07       1.46893119e-05      -3.13764866e-05 
      -2.91229927e-07       1.53854901e-05      -3.28740194e-05 
      -7.94975647e-07       1.53854892e-05      -3.28740168e-05 
       2.88894809e-07       1.53854904e-05      -3.28740208e-05 
       7.92640529e-07       1.53854913e-05      -3.28740235e-05 
      -2.91229927e-07       1.53854901e-05      -3.28740194e-05 
      -7.94975647e-07       1.53854892e-05      -3.28740168e-05 