# vtk DataFile Version 2.0
./output/onsasExample_BladeCantileverBeamNoPitch_windVel3DDynamic 3D/onsasExample_BladeCantileverBeamNoPitch_windVel3DDynamic 3D_0021.vtk
ASCII
DATASET UNSTRUCTURED_GRID

POINTS 800 float
       8.096171e-25      -7.180703e-02      -7.180703e-02 
      -1.562022e-23       7.180703e-02      -7.180703e-02 
      -8.096171e-25       7.180703e-02       7.180703e-02 
       1.562022e-23      -7.180703e-02       7.180703e-02 
       2.000000e-01      -7.180702e-02      -7.180706e-02 
       2.000000e-01       7.180705e-02      -7.180706e-02 
       2.000000e-01       7.180705e-02       7.180700e-02 
       2.000000e-01      -7.180702e-02       7.180700e-02 
       2.000000e-01      -7.180702e-02      -7.180706e-02 
       2.000000e-01       7.180705e-02      -7.180706e-02 
       2.000000e-01       7.180705e-02       7.180700e-02 
       2.000000e-01      -7.180702e-02       7.180700e-02 
       4.000000e-01      -7.180698e-02      -7.180715e-02 
       3.999999e-01       7.180709e-02      -7.180715e-02 
       4.000000e-01       7.180709e-02       7.180692e-02 
       4.000001e-01      -7.180698e-02       7.180692e-02 
       4.000000e-01      -7.180698e-02      -7.180715e-02 
       3.999999e-01       7.180709e-02      -7.180715e-02 
       4.000000e-01       7.180709e-02       7.180692e-02 
       4.000001e-01      -7.180698e-02       7.180692e-02 
       6.000000e-01      -7.180691e-02      -7.180729e-02 
       5.999999e-01       7.180716e-02      -7.180729e-02 
       6.000000e-01       7.180716e-02       7.180678e-02 
       6.000001e-01      -7.180691e-02       7.180678e-02 
       6.000000e-01      -7.180691e-02      -7.180729e-02 
       5.999999e-01       7.180716e-02      -7.180729e-02 
       6.000000e-01       7.180716e-02       7.180678e-02 
       6.000001e-01      -7.180691e-02       7.180678e-02 
       8.000000e-01      -7.180682e-02      -7.180749e-02 
       7.999999e-01       7.180725e-02      -7.180749e-02 
       8.000000e-01       7.180725e-02       7.180658e-02 
       8.000001e-01      -7.180682e-02       7.180658e-02 
       8.000000e-01      -7.180682e-02      -7.180749e-02 
       7.999999e-01       7.180725e-02      -7.180749e-02 
       8.000000e-01       7.180725e-02       7.180658e-02 
       8.000001e-01      -7.180682e-02       7.180658e-02 
       9.999999e-01      -7.180670e-02      -7.180774e-02 
       9.999999e-01       7.180737e-02      -7.180774e-02 
       1.000000e+00       7.180737e-02       7.180633e-02 
       1.000000e+00      -7.180670e-02       7.180633e-02 
       9.999999e-01      -7.180670e-02      -7.180774e-02 
       9.999999e-01       7.180737e-02      -7.180774e-02 
       1.000000e+00       7.180737e-02       7.180633e-02 
       1.000000e+00      -7.180670e-02       7.180633e-02 
       1.200000e+00      -7.180655e-02      -7.180804e-02 
       1.200000e+00       7.180752e-02      -7.180804e-02 
       1.200000e+00       7.180752e-02       7.180602e-02 
       1.200000e+00      -7.180655e-02       7.180602e-02 
       1.200000e+00      -7.180655e-02      -7.180804e-02 
       1.200000e+00       7.180752e-02      -7.180804e-02 
       1.200000e+00       7.180752e-02       7.180602e-02 
       1.200000e+00      -7.180655e-02       7.180602e-02 
       1.400000e+00      -7.180638e-02      -7.180840e-02 
       1.400000e+00       7.180769e-02      -7.180840e-02 
       1.400000e+00       7.180769e-02       7.180567e-02 
       1.400000e+00      -7.180638e-02       7.180567e-02 
       1.400000e+00      -7.180638e-02      -7.180840e-02 
       1.400000e+00       7.180769e-02      -7.180840e-02 
       1.400000e+00       7.180769e-02       7.180567e-02 
       1.400000e+00      -7.180638e-02       7.180567e-02 
       1.600000e+00      -7.180618e-02      -7.180881e-02 
       1.600000e+00       7.180788e-02      -7.180881e-02 
       1.600000e+00       7.180788e-02       7.180526e-02 
       1.600000e+00      -7.180618e-02       7.180526e-02 
       1.600000e+00      -7.180618e-02      -7.180881e-02 
       1.600000e+00       7.180788e-02      -7.180881e-02 
       1.600000e+00       7.180788e-02       7.180526e-02 
       1.600000e+00      -7.180618e-02       7.180526e-02 
       1.800000e+00      -7.180597e-02      -7.180927e-02 
       1.800000e+00       7.180810e-02      -7.180927e-02 
       1.800000e+00       7.180810e-02       7.180480e-02 
       1.800000e+00      -7.180597e-02       7.180480e-02 
       1.800000e+00      -7.180597e-02      -7.180927e-02 
       1.800000e+00       7.180810e-02      -7.180927e-02 
       1.800000e+00       7.180810e-02       7.180480e-02 
       1.800000e+00      -7.180597e-02       7.180480e-02 
       2.000000e+00      -7.180573e-02      -7.180977e-02 
       2.000000e+00       7.180834e-02      -7.180977e-02 
       2.000000e+00       7.180834e-02       7.180429e-02 
       2.000000e+00      -7.180573e-02       7.180429e-02 
       2.000000e+00      -7.180573e-02      -7.180977e-02 
       2.000000e+00       7.180834e-02      -7.180977e-02 
       2.000000e+00       7.180834e-02       7.180429e-02 
       2.000000e+00      -7.180573e-02       7.180429e-02 
       2.200000e+00      -7.180546e-02      -7.181033e-02 
       2.200000e+00       7.180860e-02      -7.181033e-02 
       2.200000e+00       7.180860e-02       7.180374e-02 
       2.200000e+00      -7.180546e-02       7.180374e-02 
       2.200000e+00      -7.180546e-02      -7.181033e-02 
       2.200000e+00       7.180860e-02      -7.181033e-02 
       2.200000e+00       7.180860e-02       7.180374e-02 
       2.200000e+00      -7.180546e-02       7.180374e-02 
       2.400000e+00      -7.180518e-02      -7.181093e-02 
       2.400000e+00       7.180889e-02      -7.181093e-02 
       2.400000e+00       7.180889e-02       7.180314e-02 
       2.400000e+00      -7.180518e-02       7.180314e-02 
       2.400000e+00      -7.180518e-02      -7.181093e-02 
       2.400000e+00       7.180889e-02      -7.181093e-02 
       2.400000e+00       7.180889e-02       7.180314e-02 
       2.400000e+00      -7.180518e-02       7.180314e-02 
       2.600000e+00      -7.180487e-02      -7.181157e-02 
       2.600000e+00       7.180920e-02      -7.181157e-02 
       2.600000e+00       7.180920e-02       7.180249e-02 
       2.600000e+00      -7.180487e-02       7.180249e-02 
       2.600000e+00      -7.180487e-02      -7.181157e-02 
       2.600000e+00       7.180920e-02      -7.181157e-02 
       2.600000e+00       7.180920e-02       7.180249e-02 
       2.600000e+00      -7.180487e-02       7.180249e-02 
       2.800000e+00      -7.180454e-02      -7.181226e-02 
       2.800000e+00       7.180953e-02      -7.181226e-02 
       2.800000e+00       7.180953e-02       7.180180e-02 
       2.800000e+00      -7.180454e-02       7.180180e-02 
       2.800000e+00      -7.180454e-02      -7.181226e-02 
       2.800000e+00       7.180953e-02      -7.181226e-02 
       2.800000e+00       7.180953e-02       7.180180e-02 
       2.800000e+00      -7.180454e-02       7.180180e-02 
       3.000000e+00      -7.180419e-02      -7.181300e-02 
       3.000000e+00       7.180988e-02      -7.181300e-02 
       3.000000e+00       7.180988e-02       7.180107e-02 
       3.000000e+00      -7.180419e-02       7.180107e-02 
       3.000000e+00      -7.180419e-02      -7.181300e-02 
       3.000000e+00       7.180988e-02      -7.181300e-02 
       3.000000e+00       7.180988e-02       7.180107e-02 
       3.000000e+00      -7.180419e-02       7.180107e-02 
       3.200000e+00      -7.180382e-02      -7.181377e-02 
       3.200000e+00       7.181025e-02      -7.181377e-02 
       3.200000e+00       7.181025e-02       7.180029e-02 
       3.200000e+00      -7.180382e-02       7.180029e-02 
       3.200000e+00      -7.180382e-02      -7.181377e-02 
       3.200000e+00       7.181025e-02      -7.181377e-02 
       3.200000e+00       7.181025e-02       7.180029e-02 
       3.200000e+00      -7.180382e-02       7.180029e-02 
       3.400000e+00      -7.180343e-02      -7.181459e-02 
       3.400000e+00       7.181064e-02      -7.181459e-02 
       3.400000e+00       7.181064e-02       7.179947e-02 
       3.400000e+00      -7.180343e-02       7.179947e-02 
       3.400000e+00      -7.180343e-02      -7.181459e-02 
       3.400000e+00       7.181064e-02      -7.181459e-02 
       3.400000e+00       7.181064e-02       7.179947e-02 
       3.400000e+00      -7.180343e-02       7.179947e-02 
       3.600000e+00      -7.180302e-02      -7.181545e-02 
       3.600000e+00       7.181105e-02      -7.181545e-02 
       3.600000e+00       7.181105e-02       7.179861e-02 
       3.600000e+00      -7.180302e-02       7.179861e-02 
       3.600000e+00      -7.180302e-02      -7.181545e-02 
       3.600000e+00       7.181105e-02      -7.181545e-02 
       3.600000e+00       7.181105e-02       7.179861e-02 
       3.600000e+00      -7.180302e-02       7.179861e-02 
       3.800000e+00      -7.180259e-02      -7.181635e-02 
       3.800000e+00       7.181147e-02      -7.181635e-02 
       3.800000e+00       7.181147e-02       7.179771e-02 
       3.800000e+00      -7.180259e-02       7.179771e-02 
       3.800000e+00      -7.180259e-02      -7.181635e-02 
       3.800000e+00       7.181147e-02      -7.181635e-02 
       3.800000e+00       7.181147e-02       7.179771e-02 
       3.800000e+00      -7.180259e-02       7.179771e-02 
       4.000000e+00      -7.180215e-02      -7.181729e-02 
       3.999999e+00       7.181192e-02      -7.181729e-02 
       4.000000e+00       7.181192e-02       7.179677e-02 
       4.000001e+00      -7.180215e-02       7.179677e-02 
       4.000000e+00      -7.180215e-02      -7.181729e-02 
       3.999999e+00       7.181192e-02      -7.181729e-02 
       4.000000e+00       7.181192e-02       7.179677e-02 
       4.000001e+00      -7.180215e-02       7.179677e-02 
       4.200000e+00      -7.180168e-02      -7.181827e-02 
[...]
POINT_DATA       800 
VECTORS Displacements float
       8.09617148e-25       0.00000000e+00       0.00000000e+00 
      -1.56202170e-23       0.00000000e+00       0.00000000e+00 
      -8.09617148e-25       0.00000000e+00       0.00000000e+00 
       1.56202170e-23       0.00000000e+00       0.00000000e+00 
      -1.08639764e-08       1.38674654e-08      -2.89841354e-08 
      -3.07163800e-08       1.38674640e-08      -2.89840978e-08 
       1.07813686e-08       1.38674321e-08      -2.89841038e-08 
       3.06337722e-08       1.38674335e-08      -2.89841414e-08 
      -1.08639764e-08       1.38674654e-08      -2.89841354e-08 
      -3.07163800e-08       1.38674640e-08      -2.89840978e-08 
       1.07813686e-08       1.38674321e-08      -2.89841038e-08 
       3.06337722e-08       1.38674335e-08      -2.89841414e-08 
      -2.15350868e-08       5.51177528e-08      -1.15226135e-07 
      -6.08606731e-08       5.51177475e-08      -1.15226055e-07 
       2.13696785e-08       5.51176893e-08      -1.15226078e-07 
       6.06952648e-08       5.51176946e-08      -1.15226159e-07 
      -2.15350868e-08       5.51177528e-08      -1.15226135e-07 
      -6.08606731e-08       5.51177475e-08      -1.15226055e-07 
       2.13696785e-08       5.51176893e-08      -1.15226078e-07 
       6.06952648e-08       5.51176946e-08      -1.15226159e-07 
      -3.20133295e-08       1.23222751e-07      -2.57660442e-07 
      -9.04328776e-08       1.23222740e-07      -2.57660313e-07 
       3.17649317e-08       1.23222660e-07      -2.57660365e-07 
       9.01844798e-08       1.23222672e-07      -2.57660494e-07 
      -3.20133295e-08       1.23222751e-07      -2.57660442e-07 
      -9.04328776e-08       1.23222740e-07      -2.57660313e-07 
       3.17649317e-08       1.23222660e-07      -2.57660365e-07 
       9.01844798e-08       1.23222672e-07      -2.57660494e-07 
      -4.22987024e-08       2.17654350e-07      -4.55221498e-07 
      -1.19432992e-07       2.17654329e-07      -4.55221315e-07 
       4.19671299e-08       2.17654234e-07      -4.55221406e-07 
       1.19101419e-07       2.17654255e-07      -4.55221588e-07 
      -4.22987024e-08       2.17654350e-07      -4.55221498e-07 
      -1.19432992e-07       2.17654329e-07      -4.55221315e-07 
       4.19671299e-08       2.17654234e-07      -4.55221406e-07 
       1.19101419e-07       2.17654255e-07      -4.55221588e-07 
      -5.23912043e-08       3.37884438e-07      -7.06843745e-07 
      -1.47861013e-07       3.37884406e-07      -7.06843505e-07 
       5.19762748e-08       3.37884299e-07      -7.06843644e-07 
       1.47446084e-07       3.37884331e-07      -7.06843884e-07 
      -5.23912043e-08       3.37884438e-07      -7.06843745e-07 
      -1.47861013e-07       3.37884406e-07      -7.06843505e-07 
       5.19762748e-08       3.37884299e-07      -7.06843644e-07 
       1.47446084e-07       3.37884331e-07      -7.06843884e-07 
      -6.22908329e-08       4.83384904e-07      -1.01146163e-06 
      -1.75716941e-07       4.83384859e-07      -1.01146132e-06 
       6.17923683e-08       4.83384745e-07      -1.01146152e-06 
       1.75218477e-07       4.83384790e-07      -1.01146182e-06 
      -6.22908329e-08       4.83384904e-07      -1.01146163e-06 
      -1.75716941e-07       4.83384859e-07      -1.01146132e-06 
       6.17923683e-08       4.83384745e-07      -1.01146152e-06 
       1.75218477e-07       4.83384790e-07      -1.01146182e-06 
      -7.19975866e-08       6.53627637e-07      -1.36800958e-06 
      -2.03000773e-07       6.53627577e-07      -1.36800922e-06 
       7.14154127e-08       6.53627460e-07      -1.36800948e-06 
       2.02418599e-07       6.53627520e-07      -1.36800985e-06 
      -7.19975866e-08       6.53627637e-07      -1.36800958e-06 
      -2.03000773e-07       6.53627577e-07      -1.36800922e-06 
       7.14154127e-08       6.53627460e-07      -1.36800948e-06 
       2.02418599e-07       6.53627520e-07      -1.36800985e-06 
      -8.15114627e-08       8.48084527e-07      -1.77542206e-06 
      -2.29712507e-07       8.48084450e-07      -1.77542162e-06 
       8.08454093e-08       8.48084333e-07      -1.77542196e-06 
       2.29046453e-07       8.48084409e-07      -1.77542240e-06 
      -8.15114627e-08       8.48084527e-07      -1.77542206e-06 
      -2.29712507e-07       8.48084450e-07      -1.77542162e-06 
       8.08454093e-08       8.48084333e-07      -1.77542196e-06 
       2.29046453e-07       8.48084409e-07      -1.77542240e-06 
      -9.08324611e-08       1.06622746e-06      -2.23263350e-06 
      -2.55852141e-07       1.06622737e-06      -2.23263299e-06 
       9.00823596e-08       1.06622725e-06      -2.23263340e-06 
       2.55102040e-07       1.06622735e-06      -2.23263391e-06 
      -9.08324611e-08       1.06622746e-06      -2.23263350e-06 
      -2.55852141e-07       1.06622737e-06      -2.23263299e-06 
       9.00823596e-08       1.06622725e-06      -2.23263340e-06 
       2.55102040e-07       1.06622735e-06      -2.23263391e-06 
      -9.99605787e-08       1.30752833e-06      -2.73857834e-06 
      -2.81419675e-07       1.30752822e-06      -2.73857775e-06 
       9.91262659e-08       1.30752811e-06      -2.73857825e-06 
       2.80585362e-07       1.30752822e-06      -2.73857884e-06 
      -9.99605787e-08       1.30752833e-06      -2.73857834e-06 
      -2.81419675e-07       1.30752822e-06      -2.73857775e-06 
       9.91262659e-08       1.30752811e-06      -2.73857825e-06 
       2.80585362e-07       1.30752822e-06      -2.73857884e-06 
      -1.08888841e-07       1.57146813e-06      -3.29220741e-06 
      -3.06427796e-07       1.57146799e-06      -3.29220675e-06 
       1.08000157e-07       1.57146791e-06      -3.29220735e-06 
       3.05539112e-07       1.57146805e-06      -3.29220800e-06 
      -1.08888841e-07       1.57146813e-06      -3.29220741e-06 
      -3.06427796e-07       1.57146799e-06      -3.29220675e-06 
       1.08000157e-07       1.57146791e-06      -3.29220735e-06 
       3.05539112e-07       1.57146805e-06      -3.29220800e-06 
      -1.17641167e-07       1.85756450e-06      -3.89253939e-06 
      -3.30920218e-07       1.85756434e-06      -3.89253867e-06 
       1.16697682e-07       1.85756428e-06      -3.89253937e-06 
       3.29976732e-07       1.85756444e-06      -3.89254009e-06 
      -1.17641167e-07       1.85756450e-06      -3.89253939e-06 
      -3.30920218e-07       1.85756434e-06      -3.89253867e-06 
       1.16697682e-07       1.85756428e-06      -3.89253937e-06 
       3.29976732e-07       1.85756444e-06      -3.89254009e-06 
      -1.26217552e-07       2.16534428e-06      -4.53861051e-06 
      -3.54896936e-07       2.16534410e-06      -4.53860972e-06 
       1.25218843e-07       2.16534407e-06      -4.53861052e-06 
       3.53898227e-07       2.16534425e-06      -4.53861131e-06 
      -1.26217552e-07       2.16534428e-06      -4.53861051e-06 
      -3.54896936e-07       2.16534410e-06      -4.53860972e-06 
       1.25218843e-07       2.16534407e-06      -4.53861052e-06 
       3.53898227e-07       2.16534425e-06      -4.53861131e-06 
      -1.34617991e-07       2.49433431e-06      -5.22945696e-06 
      -3.78357946e-07       2.49433410e-06      -5.22945610e-06 
       1.33563645e-07       2.49433411e-06      -5.22945701e-06 
       3.77303601e-07       2.49433431e-06      -5.22945787e-06 
      -1.34617991e-07       2.49433431e-06      -5.22945696e-06 
      -3.78357946e-07       2.49433410e-06      -5.22945610e-06 
       1.33563645e-07       2.49433411e-06      -5.22945701e-06 
       3.77303601e-07       2.49433431e-06      -5.22945787e-06 
      -1.42842479e-07       2.84406143e-06      -5.96411498e-06 
      -4.01303244e-07       2.84406120e-06      -5.96411404e-06 
       1.41732094e-07       2.84406124e-06      -5.96411506e-06 
       4.00192858e-07       2.84406147e-06      -5.96411600e-06 
      -1.42842479e-07       2.84406143e-06      -5.96411498e-06 
      -4.01303244e-07       2.84406120e-06      -5.96411404e-06 
       1.41732094e-07       2.84406124e-06      -5.96411506e-06 
       4.00192858e-07       2.84406147e-06      -5.96411600e-06 
      -1.50891013e-07       3.21405249e-06      -6.74162076e-06 
      -4.23732824e-07       3.21405223e-06      -6.74161974e-06 
       1.49724192e-07       3.21405230e-06      -6.74162089e-06 
       4.22566004e-07       3.21405256e-06      -6.74162190e-06 
      -1.50891013e-07       3.21405249e-06      -6.74162076e-06 
      -4.23732824e-07       3.21405223e-06      -6.74161974e-06 
       1.49724192e-07       3.21405230e-06      -6.74162089e-06 
       4.22566004e-07       3.21405256e-06      -6.74162190e-06 
      -1.58763587e-07       3.60383431e-06      -7.56101052e-06 
      -4.45646683e-07       3.60383402e-06      -7.56100943e-06 
       1.57539946e-07       3.60383414e-06      -7.56101070e-06 
       4.44423041e-07       3.60383442e-06      -7.56101179e-06 
      -1.58763587e-07       3.60383431e-06      -7.56101052e-06 
      -4.45646683e-07       3.60383402e-06      -7.56100943e-06 
       1.57539946e-07       3.60383414e-06      -7.56101070e-06 
       4.44423041e-07       3.60383442e-06      -7.56101179e-06 
      -1.66460198e-07       4.01293374e-06      -8.42132048e-06 
      -4.67044815e-07       4.01293343e-06      -8.42131931e-06 
       1.65179360e-07       4.01293358e-06      -8.42132070e-06 
       4.65763976e-07       4.01293389e-06      -8.42132187e-06 
      -1.66460198e-07       4.01293374e-06      -8.42132048e-06 
      -4.67044815e-07       4.01293343e-06      -8.42131931e-06 
       1.65179360e-07       4.01293358e-06      -8.42132070e-06 
       4.65763976e-07       4.01293389e-06      -8.42132187e-06 
      -1.73980840e-07       4.44087763e-06      -9.32158685e-06 
      -4.87927217e-07       4.44087729e-06      -9.32158560e-06 
       1.72642436e-07       4.44087748e-06      -9.32158712e-06 
       4.86588813e-07       4.44087782e-06      -9.32158837e-06 
      -1.73980840e-07       4.44087763e-06      -9.32158685e-06 
      -4.87927217e-07       4.44087729e-06      -9.32158560e-06 
       1.72642436e-07       4.44087748e-06      -9.32158712e-06 
       4.86588813e-07       4.44087782e-06      -9.32158837e-06 
      -1.81325510e-07       4.88719280e-06      -1.02608458e-05 
      -5.08293885e-07       4.88719243e-06      -1.02608445e-05 
       1.79929181e-07       4.88719266e-06      -1.02608462e-05 
       5.06897555e-07       4.88719303e-06      -1.02608475e-05 
      -1.81325510e-07       4.88719280e-06      -1.02608458e-05 
      -5.08293884e-07       4.88719243e-06      -1.02608445e-05 
       1.79929181e-07       4.88719266e-06      -1.02608462e-05 
       5.06897555e-07       4.88719303e-06      -1.02608475e-05 
      -1.88491896e-07       5.35141524e-06      -1.12381503e-05 
      -5.28162222e-07       5.35141484e-06      -1.12381489e-05 
       1.87058466e-07       5.35141512e-06      -1.12381507e-05 
       5.26728791e-07       5.35141552e-06      -1.12381521e-05 
      -1.88491896e-07       5.35141524e-06      -1.12381503e-05 
      -5.28162222e-07       5.35141484e-06      -1.12381489e-05 
       1.87058466e-07       5.35141512e-06      -1.12381507e-05 
       5.26728791e-07       5.35141552e-06      -1.12381521e-05 
      -1.95499803e-07       5.83311765e-06      -1.22526221e-05 
      -5.47571871e-07       5.83311722e-06      -1.22526206e-05 
       1.94028757e-07       5.83311755e-06      -1.22526225e-05 
       5.46100825e-07       5.83311798e-06      -1.22526240e-05 
      -1.95499803e-07       5.83311765e-06      -1.22526221e-05 
      -5.47571871e-07       5.83311722e-06      -1.22526206e-05 
       1.94028757e-07       5.83311755e-06      -1.22526225e-05 
       5.46100825e-07       5.83311798e-06      -1.22526240e-05 
      -2.02349227e-07       6.33188194e-06      -1.33034011e-05 
      -5.66522826e-07       6.33188148e-06      -1.33033995e-05 
       2.00840062e-07       6.33188187e-06      -1.33034016e-05 
       5.65013661e-07       6.33188233e-06      -1.33034031e-05 
      -2.02349227e-07       6.33188194e-06      -1.33034011e-05 
      -5.66522826e-07       6.33188148e-06      -1.33033995e-05 
       2.00840062e-07       6.33188187e-06      -1.33034016e-05 
       5.65013661e-07       6.33188233e-06      -1.33034031e-05 
      -2.09040161e-07       6.84729005e-06      -1.43896270e-05 
      -5.85015082e-07       6.84728956e-06      -1.43896254e-05 
       2.07492385e-07       6.84729000e-06      -1.43896276e-05 
       5.83467306e-07       6.84729049e-06      -1.43896292e-05 
      -2.09040161e-07       6.84729005e-06      -1.43896270e-05 
      -5.85015082e-07       6.84728956e-06      -1.43896254e-05 
       2.07492385e-07       6.84729000e-06      -1.43896276e-05 
       5.83467306e-07       6.84729049e-06      -1.43896292e-05 
      -2.15572601e-07       7.37892389e-06      -1.55104398e-05 
      -6.03048632e-07       7.37892336e-06      -1.55104381e-05 
       2.13985733e-07       7.37892386e-06      -1.55104404e-05 
       6.01461764e-07       7.37892438e-06      -1.55104421e-05 
      -2.15572601e-07       7.37892389e-06      -1.55104398e-05 
      -6.03048632e-07       7.37892336e-06      -1.55104381e-05 
       2.13985733e-07       7.37892386e-06      -1.55104404e-05 
       6.01461764e-07       7.37892438e-06      -1.55104421e-05 
      -2.21946538e-07       7.92636538e-06      -1.66649791e-05 
      -6.20623471e-07       7.92636482e-06      -1.66649773e-05 
       2.20320111e-07       7.92636537e-06      -1.66649797e-05 
       6.18997044e-07       7.92636592e-06      -1.66649815e-05 
      -2.21946538e-07       7.92636538e-06      -1.66649791e-05 
      -6.20623471e-07       7.92636482e-06      -1.66649773e-05 
       2.20320111e-07       7.92636537e-06      -1.66649797e-05 
       6.18997044e-07       7.92636592e-06      -1.66649815e-05 
      -2.28161969e-07       8.48919644e-06      -1.78523848e-05 
      -6.37739592e-07       8.48919585e-06      -1.78523829e-05 
       2.26495528e-07       8.48919645e-06      -1.78523855e-05 
       6.36073151e-07       8.48919704e-06      -1.78523874e-05 
      -2.28161969e-07       8.48919644e-06      -1.78523848e-05 
      -6.37739592e-07       8.48919585e-06      -1.78523829e-05 
       2.26495528e-07       8.48919645e-06      -1.78523855e-05 
       6.36073151e-07       8.48919704e-06      -1.78523874e-05 
      -2.34218884e-07       9.06699899e-06      -1.90717967e-05 
      -6.54396987e-07       9.06699838e-06      -1.90717947e-05 
       2.32511988e-07       9.06699903e-06      -1.90717975e-05 
       6.52690090e-07       9.06699965e-06      -1.90717994e-05 
      -2.34218884e-07       9.06699899e-06      -1.90717967e-05 
      -6.54396987e-07       9.06699838e-06      -1.90717947e-05 
       2.32511988e-07       9.06699903e-06      -1.90717975e-05 
       6.52690090e-07       9.06699965e-06      -1.90717994e-05 
      -2.40117282e-07       9.65935496e-06      -2.03223545e-05 
      -6.70595655e-07       9.65935432e-06      -2.03223525e-05 
       2.38369496e-07       9.65935503e-06      -2.03223554e-05 
       6.68847869e-07       9.65935567e-06      -2.03223574e-05 
      -2.40117282e-07       9.65935496e-06      -2.03223545e-05 
      -6.70595655e-07       9.65935432e-06      -2.03223525e-05 
       2.38369496e-07       9.65935503e-06      -2.03223554e-05 
       6.68847869e-07       9.65935567e-06      -2.03223574e-05 
      -2.45857153e-07       1.02658463e-05      -2.16031982e-05 
      -6.86335587e-07       1.02658456e-05      -2.16031961e-05 
       2.44068058e-07       1.02658464e-05      -2.16031992e-05 
       6.84546491e-07       1.02658470e-05      -2.16032012e-05 
      -2.45857153e-07       1.02658463e-05      -2.16031982e-05 
      -6.86335587e-07       1.02658456e-05      -2.16031961e-05 
       2.44068058e-07       1.02658464e-05      -2.16031992e-05 
       6.84546491e-07       1.02658470e-05      -2.16032012e-05 
      -2.51439954e-07       1.08860640e-05      -2.29134844e-05 
      -7.01638002e-07       1.08860633e-05      -2.29134823e-05 
       2.49623387e-07       1.08860641e-05      -2.29134854e-05 
       6.99821435e-07       1.08860648e-05      -2.29134876e-05 
      -2.51439954e-07       1.08860640e-05      -2.29134844e-05 
      -7.01638002e-07       1.08860633e-05      -2.29134823e-05 
       2.49623387e-07       1.08860641e-05      -2.29134854e-05 
       6.99821435e-07       1.08860648e-05      -2.29134876e-05 
      -2.56882354e-07       1.15196360e-05      -2.42524403e-05 
      -7.16539443e-07       1.15196353e-05      -2.42524380e-05 
       2.55037815e-07       1.15196362e-05      -2.42524413e-05 
       7.14694903e-07       1.15196369e-05      -2.42524436e-05 
      -2.56882354e-07       1.15196360e-05      -2.42524403e-05 
      -7.16539443e-07       1.15196353e-05      -2.42524380e-05 
       2.55037815e-07       1.15196362e-05      -2.42524413e-05 
       7.14694903e-07       1.15196369e-05      -2.42524436e-05 
      -2.62184348e-07       1.21661995e-05      -2.56193111e-05 
      -7.31039902e-07       1.21661987e-05      -2.56193088e-05 
       2.60311350e-07       1.21661996e-05      -2.56193122e-05 
       7.29166905e-07       1.21662004e-05      -2.56193145e-05 
      -2.62184348e-07       1.21661995e-05      -2.56193111e-05 
      -7.31039902e-07       1.21661987e-05      -2.56193088e-05 
       2.60311350e-07       1.21661996e-05      -2.56193122e-05 
       7.29166905e-07       1.21662004e-05      -2.56193145e-05 
      -2.67345929e-07       1.28253914e-05      -2.70133423e-05 
      -7.45139375e-07       1.28253906e-05      -2.70133399e-05 
       2.65443998e-07       1.28253916e-05      -2.70133435e-05 
       7.43237444e-07       1.28253924e-05      -2.70133459e-05 
      -2.67345929e-07       1.28253914e-05      -2.70133423e-05 
      -7.45139375e-07       1.28253906e-05      -2.70133399e-05 
       2.65443998e-07       1.28253916e-05      -2.70133435e-05 
       7.43237444e-07       1.28253924e-05      -2.70133459e-05 
      -2.72367091e-07       1.34968491e-05      -2.84337792e-05 
      -7.58837854e-07       1.34968483e-05      -2.84337768e-05 
       2.70435766e-07       1.34968493e-05      -2.84337805e-05 
       7.56906529e-07       1.34968501e-05      -2.84337829e-05 
      -2.72367091e-07       1.34968491e-05      -2.84337792e-05 
      -7.58837854e-07       1.34968483e-05      -2.84337768e-05 
       2.70435766e-07       1.34968493e-05      -2.84337805e-05 
       7.56906529e-07       1.34968501e-05      -2.84337829e-05 
      -2.77247826e-07       1.41802095e-05      -2.98798673e-05 
      -7.72135332e-07       1.41802086e-05      -2.98798648e-05 
       2.75286660e-07       1.41802097e-05      -2.98798686e-05 
       7.70174165e-07       1.41802106e-05      -2.98798711e-05 
      -2.77247826e-07       1.41802095e-05      -2.98798673e-05 
      -7.72135332e-07       1.41802086e-05      -2.98798648e-05 
       2.75286660e-07       1.41802097e-05      -2.98798686e-05 
       7.70174165e-07       1.41802106e-05      -2.98798711e-05 
      -2.81988129e-07       1.48751098e-05      -3.13508519e-05 
      -7.85031802e-07       1.48751089e-05      -3.13508493e-05 
       2.79996687e-07       1.48751101e-05      -3.13508533e-05 
       7.83040360e-07       1.48751110e-05      -3.13508558e-05 
      -2.81988129e-07       1.48751098e-05      -3.13508519e-05 
      -7.85031802e-07       1.48751089e-05      -3.13508493e-05 
       2.79996687e-07       1.48751101e-05      -3.13508533e-05 
       7.83040360e-07       1.48751110e-05      -3.13508558e-05 
      -2.86587991e-07       1.55811871e-05      -3.28459783e-05 
      -7.97527257e-07       1.55811862e-05      -3.28459757e-05 
       2.84565855e-07       1.55811874e-05      -3.28459798e-05 
       7.95505121e-07       1.55811883e-05      -3.28459824e-05 
      -2.86587991e-07       1.55811871e-05      -3.28459783e-05 
      -7.97527257e-07       1.55811862e-05      -3.28459757e-05 