# vtk DataFile Version 2.0
./output/onsasExample_BladeCantileverBeamNoPitch_windVel3DDynamic 3D/onsasExample_BladeCantileverBeamNoPitch_windVel3DDynamic 3D_0124.vtk
ASCII
DATASET UNSTRUCTURED_GRID

POINTS 800 float
       3.026339e-25      -7.180703e-02      -7.180703e-02 
      -1.107690e-23       7.180703e-02      -7.180703e-02 
      -3.026339e-25       7.180703e-02       7.180703e-02 
       1.107690e-23      -7.180703e-02       7.180703e-02 
       2.000000e-01      -7.180702e-02      -7.180706e-02 
       2.000000e-01       7.180705e-02      -7.180706e-02 
       2.000000e-01       7.180705e-02       7.180701e-02 
       2.000000e-01      -7.180702e-02       7.180701e-02 
       2.000000e-01      -7.180702e-02      -7.180706e-02 
       2.000000e-01       7.180705e-02      -7.180706e-02 
       2.000000e-01       7.180705e-02       7.180701e-02 
       2.000000e-01      -7.180702e-02       7.180701e-02 
       4.000000e-01      -7.180698e-02      -7.180713e-02 
       3.999999e-01       7.180709e-02      -7.180713e-02 
       4.000000e-01       7.180709e-02       7.180694e-02 
       4.000001e-01      -7.180698e-02       7.180694e-02 
       4.000000e-01      -7.180698e-02      -7.180713e-02 
       3.999999e-01       7.180709e-02      -7.180713e-02 
       4.000000e-01       7.180709e-02       7.180694e-02 
       4.000001e-01      -7.180698e-02       7.180694e-02 
       6.000000e-01      -7.180691e-02      -7.180725e-02 
       5.999999e-01       7.180716e-02      -7.180725e-02 
       6.000000e-01       7.180716e-02       7.180682e-02 
       6.000001e-01      -7.180691e-02       7.180682e-02 
       6.000000e-01      -7.180691e-02      -7.180725e-02 
       5.999999e-01       7.180716e-02      -7.180725e-02 
       6.000000e-01       7.180716e-02       7.180682e-02 
       6.000001e-01      -7.180691e-02       7.180682e-02 
       8.000000e-01      -7.180682e-02      -7.180741e-02 
       7.999999e-01       7.180725e-02      -7.180741e-02 
       8.000000e-01       7.180725e-02       7.180666e-02 
       8.000001e-01      -7.180682e-02       7.180666e-02 
       8.000000e-01      -7.180682e-02      -7.180741e-02 
       7.999999e-01       7.180725e-02      -7.180741e-02 
       8.000000e-01       7.180725e-02       7.180666e-02 
       8.000001e-01      -7.180682e-02       7.180666e-02 
       1.000000e+00      -7.180669e-02      -7.180762e-02 
       9.999999e-01       7.180737e-02      -7.180762e-02 
       1.000000e+00       7.180737e-02       7.180645e-02 
       1.000000e+00      -7.180669e-02       7.180645e-02 
       1.000000e+00      -7.180669e-02      -7.180762e-02 
       9.999999e-01       7.180737e-02      -7.180762e-02 
       1.000000e+00       7.180737e-02       7.180645e-02 
       1.000000e+00      -7.180669e-02       7.180645e-02 
       1.200000e+00      -7.180655e-02      -7.180787e-02 
       1.200000e+00       7.180752e-02      -7.180787e-02 
       1.200000e+00       7.180752e-02       7.180620e-02 
       1.200000e+00      -7.180655e-02       7.180620e-02 
       1.200000e+00      -7.180655e-02      -7.180787e-02 
       1.200000e+00       7.180752e-02      -7.180787e-02 
       1.200000e+00       7.180752e-02       7.180620e-02 
       1.200000e+00      -7.180655e-02       7.180620e-02 
       1.400000e+00      -7.180638e-02      -7.180816e-02 
       1.400000e+00       7.180769e-02      -7.180816e-02 
       1.400000e+00       7.180769e-02       7.180590e-02 
       1.400000e+00      -7.180638e-02       7.180590e-02 
       1.400000e+00      -7.180638e-02      -7.180816e-02 
       1.400000e+00       7.180769e-02      -7.180816e-02 
       1.400000e+00       7.180769e-02       7.180590e-02 
       1.400000e+00      -7.180638e-02       7.180590e-02 
       1.600000e+00      -7.180618e-02      -7.180850e-02 
       1.600000e+00       7.180788e-02      -7.180850e-02 
       1.600000e+00       7.180788e-02       7.180557e-02 
       1.600000e+00      -7.180618e-02       7.180557e-02 
       1.600000e+00      -7.180618e-02      -7.180850e-02 
       1.600000e+00       7.180788e-02      -7.180850e-02 
       1.600000e+00       7.180788e-02       7.180557e-02 
       1.600000e+00      -7.180618e-02       7.180557e-02 
       1.800000e+00      -7.180597e-02      -7.180887e-02 
       1.800000e+00       7.180810e-02      -7.180887e-02 
       1.800000e+00       7.180810e-02       7.180519e-02 
       1.800000e+00      -7.180597e-02       7.180519e-02 
       1.800000e+00      -7.180597e-02      -7.180887e-02 
       1.800000e+00       7.180810e-02      -7.180887e-02 
       1.800000e+00       7.180810e-02       7.180519e-02 
       1.800000e+00      -7.180597e-02       7.180519e-02 
       2.000000e+00      -7.180572e-02      -7.180929e-02 
       2.000000e+00       7.180834e-02      -7.180929e-02 
       2.000000e+00       7.180834e-02       7.180478e-02 
       2.000000e+00      -7.180572e-02       7.180478e-02 
       2.000000e+00      -7.180572e-02      -7.180929e-02 
       2.000000e+00       7.180834e-02      -7.180929e-02 
       2.000000e+00       7.180834e-02       7.180478e-02 
       2.000000e+00      -7.180572e-02       7.180478e-02 
       2.200000e+00      -7.180546e-02      -7.180975e-02 
       2.200000e+00       7.180861e-02      -7.180975e-02 
       2.200000e+00       7.180861e-02       7.180432e-02 
       2.200000e+00      -7.180546e-02       7.180432e-02 
       2.200000e+00      -7.180546e-02      -7.180975e-02 
       2.200000e+00       7.180861e-02      -7.180975e-02 
       2.200000e+00       7.180861e-02       7.180432e-02 
       2.200000e+00      -7.180546e-02       7.180432e-02 
       2.400000e+00      -7.180517e-02      -7.181024e-02 
       2.400000e+00       7.180889e-02      -7.181024e-02 
       2.400000e+00       7.180889e-02       7.180383e-02 
       2.400000e+00      -7.180517e-02       7.180383e-02 
       2.400000e+00      -7.180517e-02      -7.181024e-02 
       2.400000e+00       7.180889e-02      -7.181024e-02 
       2.400000e+00       7.180889e-02       7.180383e-02 
       2.400000e+00      -7.180517e-02       7.180383e-02 
       2.600000e+00      -7.180486e-02      -7.181077e-02 
       2.600000e+00       7.180920e-02      -7.181077e-02 
       2.600000e+00       7.180920e-02       7.180330e-02 
       2.600000e+00      -7.180486e-02       7.180330e-02 
       2.600000e+00      -7.180486e-02      -7.181077e-02 
       2.600000e+00       7.180920e-02      -7.181077e-02 
       2.600000e+00       7.180920e-02       7.180330e-02 
       2.600000e+00      -7.180486e-02       7.180330e-02 
       2.800000e+00      -7.180453e-02      -7.181133e-02 
       2.800000e+00       7.180953e-02      -7.181133e-02 
       2.800000e+00       7.180953e-02       7.180273e-02 
       2.800000e+00      -7.180453e-02       7.180273e-02 
       2.800000e+00      -7.180453e-02      -7.181133e-02 
       2.800000e+00       7.180953e-02      -7.181133e-02 
       2.800000e+00       7.180953e-02       7.180273e-02 
       2.800000e+00      -7.180453e-02       7.180273e-02 
       3.000000e+00      -7.180418e-02      -7.181193e-02 
       3.000000e+00       7.180988e-02      -7.181193e-02 
       3.000000e+00       7.180988e-02       7.180213e-02 
       3.000000e+00      -7.180418e-02       7.180213e-02 
       3.000000e+00      -7.180418e-02      -7.181193e-02 
       3.000000e+00       7.180988e-02      -7.181193e-02 
       3.000000e+00       7.180988e-02       7.180213e-02 
       3.000000e+00      -7.180418e-02       7.180213e-02 
       3.200000e+00      -7.180381e-02      -7.181257e-02 
       3.200000e+00       7.181025e-02      -7.181257e-02 
       3.200000e+00       7.181025e-02       7.180150e-02 
       3.200000e+00      -7.180381e-02       7.180150e-02 
       3.200000e+00      -7.180381e-02      -7.181257e-02 
       3.200000e+00       7.181025e-02      -7.181257e-02 
       3.200000e+00       7.181025e-02       7.180150e-02 
       3.200000e+00      -7.180381e-02       7.180150e-02 
       3.400000e+00      -7.180342e-02      -7.181324e-02 
       3.400000e+00       7.181064e-02      -7.181324e-02 
       3.400000e+00       7.181064e-02       7.180083e-02 
       3.400000e+00      -7.180342e-02       7.180083e-02 
       3.400000e+00      -7.180342e-02      -7.181324e-02 
       3.400000e+00       7.181064e-02      -7.181324e-02 
       3.400000e+00       7.181064e-02       7.180083e-02 
       3.400000e+00      -7.180342e-02       7.180083e-02 
       3.600000e+00      -7.180301e-02      -7.181394e-02 
       3.600000e+00       7.181105e-02      -7.181394e-02 
       3.600000e+00       7.181105e-02       7.180012e-02 
       3.600000e+00      -7.180301e-02       7.180012e-02 
       3.600000e+00      -7.180301e-02      -7.181394e-02 
       3.600000e+00       7.181105e-02      -7.181394e-02 
       3.600000e+00       7.181105e-02       7.180012e-02 
       3.600000e+00      -7.180301e-02       7.180012e-02 
       3.800000e+00      -7.180258e-02      -7.181468e-02 
       3.800000e+00       7.181148e-02      -7.181468e-02 
       3.800000e+00       7.181148e-02       7.179939e-02 
       3.800000e+00      -7.180258e-02       7.179939e-02 
       3.800000e+00      -7.180258e-02      -7.181468e-02 
       3.800000e+00       7.181148e-02      -7.181468e-02 
       3.800000e+00       7.181148e-02       7.179939e-02 
       3.800000e+00      -7.180258e-02       7.179939e-02 
       4.000000e+00      -7.180214e-02      -7.181544e-02 
       4.000000e+00       7.181193e-02      -7.181544e-02 
       4.000000e+00       7.181193e-02       7.179862e-02 
       4.000000e+00      -7.180214e-02       7.179862e-02 
       4.000000e+00      -7.180214e-02      -7.181544e-02 
       4.000000e+00       7.181193e-02      -7.181544e-02 
       4.000000e+00       7.181193e-02       7.179862e-02 
       4.000000e+00      -7.180214e-02       7.179862e-02 
       4.200000e+00      -7.180167e-02      -7.181624e-02 
[...]
POINT_DATA       800 
VECTORS Displacements float
       3.02633903e-25       0.00000000e+00       0.00000000e+00 
      -1.10769023e-23       0.00000000e+00      -1.38777878e-17 
      -3.02633903e-25       0.00000000e+00       0.00000000e+00 
       1.10769023e-23       0.00000000e+00       1.38777878e-17 
      -7.28010416e-09       1.38867428e-08      -2.40088318e-08 
      -2.71602865e-08       1.38867414e-08      -2.40088051e-08 
       7.20516938e-09       1.38867195e-08      -2.40088092e-08 
       2.70853517e-08       1.38867209e-08      -2.40088359e-08 
      -7.28010416e-09       1.38867428e-08      -2.40088318e-08 
      -2.71602865e-08       1.38867414e-08      -2.40088051e-08 
       7.20516938e-09       1.38867195e-08      -2.40088092e-08 
       2.70853517e-08       1.38867209e-08      -2.40088359e-08 
      -1.44058682e-08       5.51953550e-08      -9.53969950e-08 
      -5.37875310e-08       5.51953495e-08      -9.53969370e-08 
       1.42558558e-08       5.51953102e-08      -9.53969531e-08 
       5.36375186e-08       5.51953156e-08      -9.53970111e-08 
      -1.44058682e-08       5.51953550e-08      -9.53969950e-08 
      -5.37875310e-08       5.51953495e-08      -9.53969370e-08 
       1.42558558e-08       5.51953102e-08      -9.53969531e-08 
       5.36375186e-08       5.51953156e-08      -9.53970111e-08 
      -2.13772906e-08       1.23398448e-07      -2.13207028e-07 
      -7.98817322e-08       1.23398436e-07      -2.13206934e-07 
       2.11520604e-08       1.23398384e-07      -2.13206970e-07 
       7.96565021e-08       1.23398396e-07      -2.13207063e-07 
      -2.13772906e-08       1.23398448e-07      -2.13207028e-07 
      -7.98817322e-08       1.23398436e-07      -2.13206934e-07 
       2.11520604e-08       1.23398384e-07      -2.13206970e-07 
       7.96565021e-08       1.23398396e-07      -2.13207063e-07 
      -2.81943699e-08       2.17968635e-07      -3.76481469e-07 
      -1.05442889e-07       2.17968614e-07      -3.76481335e-07 
       2.78937852e-08       2.17968552e-07      -3.76481397e-07 
       1.05142304e-07       2.17968573e-07      -3.76481531e-07 
      -2.81943699e-08       2.17968635e-07      -3.76481469e-07 
      -1.05442889e-07       2.17968614e-07      -3.76481335e-07 
       2.78937852e-08       2.17968552e-07      -3.76481397e-07 
       1.05142304e-07       2.17968573e-07      -3.76481531e-07 
      -3.48571051e-08       3.38378526e-07      -5.84262856e-07 
      -1.30470999e-07       3.38378494e-07      -5.84262679e-07 
       3.44810309e-08       3.38378427e-07      -5.84262774e-07 
       1.30094925e-07       3.38378459e-07      -5.84262950e-07 
      -3.48571051e-08       3.38378526e-07      -5.84262856e-07 
      -1.30470999e-07       3.38378494e-07      -5.84262679e-07 
       3.44810309e-08       3.38378427e-07      -5.84262774e-07 
       1.30094925e-07       3.38378459e-07      -5.84262950e-07 
      -4.13654941e-08       4.84100734e-07      -8.35593727e-07 
      -1.54966061e-07       4.84100689e-07      -8.35593503e-07 
       4.09137997e-08       4.84100621e-07      -8.35593637e-07 
       1.54514367e-07       4.84100666e-07      -8.35593860e-07 
      -4.13654941e-08       4.84100734e-07      -8.35593727e-07 
      -1.54966061e-07       4.84100689e-07      -8.35593503e-07 
       4.09137997e-08       4.84100621e-07      -8.35593637e-07 
       1.54514367e-07       4.84100666e-07      -8.35593860e-07 
      -4.77195359e-08       6.54607871e-07      -1.12951662e-06 
      -1.78928075e-07       6.54607811e-07      -1.12951635e-06 
       4.71920920e-08       6.54607744e-07      -1.12951652e-06 
       1.78400631e-07       6.54607804e-07      -1.12951680e-06 
      -4.77195359e-08       6.54607871e-07      -1.12951662e-06 
      -1.78928075e-07       6.54607811e-07      -1.12951635e-06 
       4.71920920e-08       6.54607744e-07      -1.12951652e-06 
       1.78400631e-07       6.54607804e-07      -1.12951680e-06 
      -5.39192289e-08       8.49372549e-07      -1.46507408e-06 
      -2.02357037e-07       8.49372472e-07      -1.46507375e-06 
       5.33159106e-08       8.49372410e-07      -1.46507398e-06 
       2.01753719e-07       8.49372486e-07      -1.46507430e-06 
      -5.39192289e-08       8.49372549e-07      -1.46507408e-06 
      -2.02357037e-07       8.49372472e-07      -1.46507375e-06 
       5.33159106e-08       8.49372410e-07      -1.46507398e-06 
       2.01753719e-07       8.49372486e-07      -1.46507430e-06 
      -5.99645718e-08       1.06786738e-06      -1.84130863e-06 
      -2.25252948e-07       1.06786728e-06      -1.84130825e-06 
       5.92852556e-08       1.06786723e-06      -1.84130853e-06 
       2.24573632e-07       1.06786732e-06      -1.84130891e-06 
      -5.99645718e-08       1.06786738e-06      -1.84130863e-06 
      -2.25252948e-07       1.06786728e-06      -1.84130825e-06 
       5.92852556e-08       1.06786723e-06      -1.84130853e-06 
       2.24573632e-07       1.06786732e-06      -1.84130891e-06 
      -6.58555634e-08       1.30956497e-06      -2.25726282e-06 
      -2.47615806e-07       1.30956486e-06      -2.25726238e-06 
       6.51001288e-08       1.30956481e-06      -2.25726272e-06 
       2.46860372e-07       1.30956493e-06      -2.25726316e-06 
      -6.58555634e-08       1.30956497e-06      -2.25726282e-06 
      -2.47615806e-07       1.30956486e-06      -2.25726238e-06 
       6.51001288e-08       1.30956481e-06      -2.25726272e-06 
       2.46860372e-07       1.30956493e-06      -2.25726316e-06 
      -7.15891124e-08       1.57394741e-06      -2.71199937e-06 
      -2.69462766e-07       1.57394727e-06      -2.71199888e-06 
       7.07858248e-08       1.57394725e-06      -2.71199928e-06 
       2.68659479e-07       1.57394738e-06      -2.71199977e-06 
      -7.15891124e-08       1.57394741e-06      -2.71199937e-06 
      -2.69462766e-07       1.57394727e-06      -2.71199888e-06 
       7.07858248e-08       1.57394725e-06      -2.71199928e-06 
       2.68659479e-07       1.57394738e-06      -2.71199977e-06 
      -7.71888171e-08       1.86053381e-06      -3.20465596e-06 
      -2.90837094e-07       1.86053365e-06      -3.20465542e-06 
       7.63373640e-08       1.86053366e-06      -3.20465589e-06 
       2.89985641e-07       1.86053382e-06      -3.20465643e-06 
      -7.71888171e-08       1.86053381e-06      -3.20465596e-06 
      -2.90837094e-07       1.86053365e-06      -3.20465542e-06 
       7.63373640e-08       1.86053366e-06      -3.20465589e-06 
       2.89985641e-07       1.86053382e-06      -3.20465643e-06 
      -8.26546747e-08       2.16885239e-06      -3.73438758e-06 
      -3.11738787e-07       2.16885221e-06      -3.73438698e-06 
       8.17547492e-08       2.16885224e-06      -3.73438752e-06 
       3.10838862e-07       2.16885243e-06      -3.73438812e-06 
      -8.26546747e-08       2.16885239e-06      -3.73438758e-06 
      -3.11738787e-07       2.16885221e-06      -3.73438698e-06 
       8.17547492e-08       2.16885224e-06      -3.73438752e-06 
       3.10838862e-07       2.16885243e-06      -3.73438812e-06 
      -8.79866806e-08       2.49843135e-06      -4.30034919e-06 
      -3.32167841e-07       2.49843114e-06      -4.30034854e-06 
       8.70379844e-08       2.49843120e-06      -4.30034915e-06 
       3.31219145e-07       2.49843141e-06      -4.30034980e-06 
      -8.79866806e-08       2.49843135e-06      -4.30034919e-06 
      -3.32167841e-07       2.49843114e-06      -4.30034854e-06 
       8.70379844e-08       2.49843120e-06      -4.30034915e-06 
       3.31219145e-07       2.49843141e-06      -4.30034980e-06 
      -9.31848327e-08       2.84879887e-06      -4.90169577e-06 
      -3.52124253e-07       2.84879863e-06      -4.90169506e-06 
       9.21870726e-08       2.84879872e-06      -4.90169575e-06 
       3.51126493e-07       2.84879896e-06      -4.90169645e-06 
      -9.31848327e-08       2.84879887e-06      -4.90169577e-06 
      -3.52124253e-07       2.84879863e-06      -4.90169506e-06 
       9.21870726e-08       2.84879872e-06      -4.90169575e-06 
       3.51126493e-07       2.84879896e-06      -4.90169645e-06 
      -9.82491271e-08       3.21948315e-06      -5.53758228e-06 
      -3.71608020e-07       3.21948289e-06      -5.53758151e-06 
       9.72020171e-08       3.21948302e-06      -5.53758228e-06 
       3.70560910e-07       3.21948328e-06      -5.53758305e-06 
      -9.82491271e-08       3.21948315e-06      -5.53758228e-06 
      -3.71608020e-07       3.21948289e-06      -5.53758151e-06 
       9.72020171e-08       3.21948302e-06      -5.53758228e-06 
       3.70560910e-07       3.21948328e-06      -5.53758305e-06 
      -1.03179560e-07       3.61001240e-06      -6.20716371e-06 
      -3.90619137e-07       3.61001211e-06      -6.20716288e-06 
       1.02082824e-07       3.61001227e-06      -6.20716373e-06 
       3.89522401e-07       3.61001256e-06      -6.20716456e-06 
      -1.03179560e-07       3.61001240e-06      -6.20716371e-06 
      -3.90619137e-07       3.61001211e-06      -6.20716288e-06 
       1.02082824e-07       3.61001227e-06      -6.20716373e-06 
       3.89522401e-07       3.61001256e-06      -6.20716456e-06 
      -1.07976128e-07       4.01991480e-06      -6.90959502e-06 
      -4.09157602e-07       4.01991449e-06      -6.90959414e-06 
       1.06829492e-07       4.01991468e-06      -6.90959506e-06 
       4.08010967e-07       4.01991500e-06      -6.90959595e-06 
      -1.07976128e-07       4.01991480e-06      -6.90959502e-06 
      -4.09157602e-07       4.01991449e-06      -6.90959414e-06 
       1.06829492e-07       4.01991468e-06      -6.90959506e-06 
       4.08010967e-07       4.01991500e-06      -6.90959595e-06 
      -1.12638827e-07       4.44871856e-06      -7.64403120e-06 
      -4.27223410e-07       4.44871822e-06      -7.64403024e-06 
       1.11442028e-07       4.44871845e-06      -7.64403125e-06 
       4.26026612e-07       4.44871879e-06      -7.64403221e-06 
      -1.12638827e-07       4.44871856e-06      -7.64403120e-06 
      -4.27223410e-07       4.44871822e-06      -7.64403024e-06 
       1.11442028e-07       4.44871845e-06      -7.64403125e-06 
       4.26026612e-07       4.44871879e-06      -7.64403221e-06 
      -1.17167655e-07       4.89595188e-06      -8.40962720e-06 
      -4.44816560e-07       4.89595150e-06      -8.40962618e-06 
       1.15920435e-07       4.89595177e-06      -8.40962728e-06 
       4.43569340e-07       4.89595214e-06      -8.40962829e-06 
      -1.17167655e-07       4.89595188e-06      -8.40962720e-06 
      -4.44816560e-07       4.89595150e-06      -8.40962618e-06 
       1.15920435e-07       4.89595177e-06      -8.40962728e-06 
       4.43569340e-07       4.89595214e-06      -8.40962829e-06 
      -1.21563063e-07       5.36115225e-06      -9.20555723e-06 
      -4.61957466e-07       5.36115185e-06      -9.20555616e-06 
       1.20284909e-07       5.36115216e-06      -9.20555734e-06 
       4.60679312e-07       5.36115256e-06      -9.20555841e-06 
      -1.21563063e-07       5.36115225e-06      -9.20555723e-06 
      -4.61957466e-07       5.36115185e-06      -9.20555616e-06 
       1.20284909e-07       5.36115216e-06      -9.20555734e-06 
       4.60679312e-07       5.36115256e-06      -9.20555841e-06 
      -1.25843855e-07       5.84389392e-06      -1.00310679e-05 
      -4.78684532e-07       5.84389349e-06      -1.00310668e-05 
       1.24534401e-07       5.84389384e-06      -1.00310680e-05 
       4.77375078e-07       5.84389427e-06      -1.00310692e-05 
      -1.25843855e-07       5.84389392e-06      -1.00310679e-05 
      -4.78684532e-07       5.84389349e-06      -1.00310668e-05 
       1.24534401e-07       5.84389384e-06      -1.00310680e-05 
       4.77375078e-07       5.84389427e-06      -1.00310692e-05 
      -1.30010029e-07       6.34376018e-06      -1.08854227e-05 
      -4.94997754e-07       6.34375971e-06      -1.08854215e-05 
       1.28668919e-07       6.34376011e-06      -1.08854229e-05 
       4.93656643e-07       6.34376058e-06      -1.08854241e-05 
      -1.30010029e-07       6.34376018e-06      -1.08854227e-05 
      -4.94997754e-07       6.34375971e-06      -1.08854215e-05 
       1.28668919e-07       6.34376011e-06      -1.08854229e-05 
       4.93656643e-07       6.34376058e-06      -1.08854241e-05 
      -1.34061581e-07       6.86033432e-06      -1.17678853e-05 
      -5.10897127e-07       6.86033383e-06      -1.17678841e-05 
       1.32688463e-07       6.86033427e-06      -1.17678855e-05 
       5.09524010e-07       6.86033477e-06      -1.17678867e-05 
      -1.34061581e-07       6.86033432e-06      -1.17678853e-05 
      -5.10897127e-07       6.86033383e-06      -1.17678841e-05 
       1.32688463e-07       6.86033427e-06      -1.17678855e-05 
       5.09524010e-07       6.86033477e-06      -1.17678867e-05 
      -1.37998505e-07       7.39319964e-06      -1.26777192e-05 
      -5.26382648e-07       7.39319911e-06      -1.26777179e-05 
       1.36593040e-07       7.39319960e-06      -1.26777194e-05 
       5.24977184e-07       7.39320013e-06      -1.26777207e-05 
      -1.37998505e-07       7.39319964e-06      -1.26777192e-05 
      -5.26382648e-07       7.39319911e-06      -1.26777179e-05 
       1.36593040e-07       7.39319960e-06      -1.26777194e-05 
       5.24977184e-07       7.39320013e-06      -1.26777207e-05 
      -1.41820796e-07       7.94193942e-06      -1.36141878e-05 
      -5.41454311e-07       7.94193887e-06      -1.36141865e-05 
       1.40382654e-07       7.94193940e-06      -1.36141881e-05 
       5.40016169e-07       7.94193996e-06      -1.36141895e-05 
      -1.41820796e-07       7.94193942e-06      -1.36141878e-05 
      -5.41454311e-07       7.94193887e-06      -1.36141865e-05 
       1.40382654e-07       7.94193940e-06      -1.36141881e-05 
       5.40016169e-07       7.94193996e-06      -1.36141895e-05 
      -1.45528452e-07       8.50613697e-06      -1.45765549e-05 
      -5.56112112e-07       8.50613638e-06      -1.45765535e-05 
       1.44057310e-07       8.50613696e-06      -1.45765552e-05 
       5.54640970e-07       8.50613755e-06      -1.45765566e-05 
      -1.45528452e-07       8.50613697e-06      -1.45765549e-05 
      -5.56112112e-07       8.50613638e-06      -1.45765535e-05 
       1.44057310e-07       8.50613696e-06      -1.45765552e-05 
       5.54640970e-07       8.50613755e-06      -1.45765566e-05 
      -1.49121465e-07       9.08537556e-06      -1.55640840e-05 
      -5.70356045e-07       9.08537494e-06      -1.55640825e-05 
       1.47617014e-07       9.08537557e-06      -1.55640843e-05 
       5.68851594e-07       9.08537619e-06      -1.55640858e-05 
      -1.49121465e-07       9.08537556e-06      -1.55640840e-05 
      -5.70356045e-07       9.08537494e-06      -1.55640825e-05 
       1.47617014e-07       9.08537557e-06      -1.55640843e-05 
       5.68851594e-07       9.08537619e-06      -1.55640858e-05 
      -1.52599832e-07       9.67923850e-06      -1.65760385e-05 
      -5.84186108e-07       9.67923785e-06      -1.65760370e-05 
       1.51061767e-07       9.67923853e-06      -1.65760388e-05 
       5.82648042e-07       9.67923918e-06      -1.65760404e-05 
      -1.52599832e-07       9.67923850e-06      -1.65760385e-05 
      -5.84186108e-07       9.67923785e-06      -1.65760370e-05 
       1.51061767e-07       9.67923853e-06      -1.65760388e-05 
       5.82648042e-07       9.67923918e-06      -1.65760404e-05 
      -1.55963551e-07       1.02873091e-05      -1.76116821e-05 
      -5.97602295e-07       1.02873084e-05      -1.76116805e-05 
       1.54391575e-07       1.02873091e-05      -1.76116825e-05 
       5.96030319e-07       1.02873098e-05      -1.76116840e-05 
      -1.55963551e-07       1.02873091e-05      -1.76116821e-05 
      -5.97602296e-07       1.02873084e-05      -1.76116805e-05 
       1.54391574e-07       1.02873091e-05      -1.76116825e-05 
       5.96030319e-07       1.02873098e-05      -1.76116840e-05 
      -1.59215825e-07       1.09091798e-05      -1.86702967e-05 
      -6.10627590e-07       1.09091791e-05      -1.86702951e-05 
       1.57622627e-07       1.09091798e-05      -1.86702971e-05 
       6.09034393e-07       1.09091806e-05      -1.86702988e-05 
      -1.59215825e-07       1.09091798e-05      -1.86702967e-05 
      -6.10627590e-07       1.09091791e-05      -1.86702951e-05 
       1.57622627e-07       1.09091798e-05      -1.86702971e-05 
       6.09034393e-07       1.09091806e-05      -1.86702988e-05 
      -1.62371705e-07       1.15444797e-05      -1.97512349e-05 
      -6.23296617e-07       1.15444789e-05      -1.97512332e-05 
       1.60756939e-07       1.15444797e-05      -1.97512353e-05 
       6.21681851e-07       1.15444805e-05      -1.97512370e-05 
      -1.62371705e-07       1.15444797e-05      -1.97512349e-05 
      -6.23296617e-07       1.15444789e-05      -1.97512332e-05 
       1.60756939e-07       1.15444797e-05      -1.97512353e-05 
       6.21681851e-07       1.15444805e-05      -1.97512370e-05 
      -1.65431187e-07       1.21928468e-05      -2.08538657e-05 
      -6.35609370e-07       1.21928460e-05      -2.08538640e-05 
       1.63794516e-07       1.21928469e-05      -2.08538662e-05 
       6.33972699e-07       1.21928476e-05      -2.08538679e-05 
      -1.65431187e-07       1.21928468e-05      -2.08538657e-05 
      -6.35609370e-07       1.21928460e-05      -2.08538640e-05 
       1.63794516e-07       1.21928469e-05      -2.08538662e-05 
       6.33972699e-07       1.21928476e-05      -2.08538679e-05 
      -1.68394268e-07       1.28539193e-05      -2.19775583e-05 
      -6.47565848e-07       1.28539185e-05      -2.19775565e-05 
       1.66735361e-07       1.28539194e-05      -2.19775588e-05 
       6.45906940e-07       1.28539202e-05      -2.19775606e-05 
      -1.68394268e-07       1.28539193e-05      -2.19775583e-05 
      -6.47565848e-07       1.28539185e-05      -2.19775565e-05 
       1.66735361e-07       1.28539194e-05      -2.19775588e-05 
       6.45906940e-07       1.28539202e-05      -2.19775606e-05 
      -1.71260941e-07       1.35273352e-05      -2.31216817e-05 
      -6.59166044e-07       1.35273343e-05      -2.31216799e-05 
       1.69579478e-07       1.35273353e-05      -2.31216822e-05 
       6.57484581e-07       1.35273361e-05      -2.31216841e-05 
      -1.71260941e-07       1.35273352e-05      -2.31216817e-05 
      -6.59166044e-07       1.35273343e-05      -2.31216799e-05 
       1.69579478e-07       1.35273353e-05      -2.31216822e-05 
       6.57484581e-07       1.35273361e-05      -2.31216841e-05 
      -1.74031203e-07       1.42127326e-05      -2.42856052e-05 
      -6.70409952e-07       1.42127318e-05      -2.42856033e-05 
       1.72326875e-07       1.42127328e-05      -2.42856058e-05 
       6.68705624e-07       1.42127336e-05      -2.42856077e-05 
      -1.74031203e-07       1.42127326e-05      -2.42856052e-05 
      -6.70409952e-07       1.42127318e-05      -2.42856033e-05 
       1.72326875e-07       1.42127328e-05      -2.42856058e-05 
       6.68705624e-07       1.42127336e-05      -2.42856077e-05 
      -1.76705046e-07       1.49097497e-05      -2.54686978e-05 
      -6.81297568e-07       1.49097488e-05      -2.54686959e-05 
       1.74977555e-07       1.49097499e-05      -2.54686984e-05 
       6.79570076e-07       1.49097508e-05      -2.54687004e-05 
      -1.76705046e-07       1.49097497e-05      -2.54686978e-05 
      -6.81297568e-07       1.49097488e-05      -2.54686959e-05 
       1.74977555e-07       1.49097499e-05      -2.54686984e-05 
       6.79570076e-07       1.49097508e-05      -2.54687004e-05 
      -1.79282467e-07       1.56180245e-05      -2.66703287e-05 
      -6.91828886e-07       1.56180236e-05      -2.66703267e-05 
       1.77531525e-07       1.56180247e-05      -2.66703293e-05 
       6.90077943e-07       1.56180256e-05      -2.66703314e-05 
      -1.79282467e-07       1.56180245e-05      -2.66703287e-05 
      -6.91828886e-07       1.56180236e-05      -2.66703267e-05 