# vtk DataFile Version 2.0
./output/onsasExample_BladeCantileverBeamNoPitch_windVel3DDynamic 3D/onsasExample_BladeCantileverBeamNoPitch_windVel3DDynamic 3D_0400.vtk
ASCII
DATASET UNSTRUCTURED_GRID

POINTS 800 float
       3.478919e-23      -7.180703e-02      -7.180703e-02 
       8.710183e-26       7.180703e-02      -7.180703e-02 
      -3.478919e-23       7.180703e-02       7.180703e-02 
      -8.710183e-26      -7.180703e-02       7.180703e-02 
       2.000000e-01      -7.180702e-02      -7.180706e-02 
       2.000000e-01       7.180705e-02      -7.180706e-02 
       2.000000e-01       7.180705e-02       7.180700e-02 
       2.000000e-01      -7.180702e-02       7.180700e-02 
       2.000000e-01      -7.180702e-02      -7.180706e-02 
       2.000000e-01       7.180705e-02      -7.180706e-02 
       2.000000e-01       7.180705e-02       7.180700e-02 
       2.000000e-01      -7.180702e-02       7.180700e-02 
       4.000000e-01      -7.180698e-02      -7.180715e-02 
       3.999999e-01       7.180709e-02      -7.180715e-02 
       4.000000e-01       7.180709e-02       7.180692e-02 
       4.000001e-01      -7.180698e-02       7.180692e-02 
       4.000000e-01      -7.180698e-02      -7.180715e-02 
       3.999999e-01       7.180709e-02      -7.180715e-02 
       4.000000e-01       7.180709e-02       7.180692e-02 
       4.000001e-01      -7.180698e-02       7.180692e-02 
       6.000000e-01      -7.180691e-02      -7.180729e-02 
       5.999999e-01       7.180716e-02      -7.180729e-02 
       6.000000e-01       7.180716e-02       7.180678e-02 
       6.000001e-01      -7.180691e-02       7.180678e-02 
       6.000000e-01      -7.180691e-02      -7.180729e-02 
       5.999999e-01       7.180716e-02      -7.180729e-02 
       6.000000e-01       7.180716e-02       7.180678e-02 
       6.000001e-01      -7.180691e-02       7.180678e-02 
       8.000000e-01      -7.180682e-02      -7.180749e-02 
       7.999999e-01       7.180725e-02      -7.180749e-02 
       8.000000e-01       7.180725e-02       7.180658e-02 
       8.000001e-01      -7.180682e-02       7.180658e-02 
       8.000000e-01      -7.180682e-02      -7.180749e-02 
       7.999999e-01       7.180725e-02      -7.180749e-02 
       8.000000e-01       7.180725e-02       7.180658e-02 
       8.000001e-01      -7.180682e-02       7.180658e-02 
       9.999999e-01      -7.180670e-02      -7.180774e-02 
       9.999999e-01       7.180737e-02      -7.180774e-02 
       1.000000e+00       7.180737e-02       7.180633e-02 
       1.000000e+00      -7.180670e-02       7.180633e-02 
       9.999999e-01      -7.180670e-02      -7.180774e-02 
       9.999999e-01       7.180737e-02      -7.180774e-02 
       1.000000e+00       7.180737e-02       7.180633e-02 
       1.000000e+00      -7.180670e-02       7.180633e-02 
       1.200000e+00      -7.180655e-02      -7.180804e-02 
       1.200000e+00       7.180751e-02      -7.180804e-02 
       1.200000e+00       7.180751e-02       7.180602e-02 
       1.200000e+00      -7.180655e-02       7.180602e-02 
       1.200000e+00      -7.180655e-02      -7.180804e-02 
       1.200000e+00       7.180751e-02      -7.180804e-02 
       1.200000e+00       7.180751e-02       7.180602e-02 
       1.200000e+00      -7.180655e-02       7.180602e-02 
       1.400000e+00      -7.180639e-02      -7.180840e-02 
       1.400000e+00       7.180768e-02      -7.180840e-02 
       1.400000e+00       7.180768e-02       7.180567e-02 
       1.400000e+00      -7.180639e-02       7.180567e-02 
       1.400000e+00      -7.180639e-02      -7.180840e-02 
       1.400000e+00       7.180768e-02      -7.180840e-02 
       1.400000e+00       7.180768e-02       7.180567e-02 
       1.400000e+00      -7.180639e-02       7.180567e-02 
       1.600000e+00      -7.180619e-02      -7.180881e-02 
       1.600000e+00       7.180787e-02      -7.180881e-02 
       1.600000e+00       7.180787e-02       7.180526e-02 
       1.600000e+00      -7.180619e-02       7.180526e-02 
       1.600000e+00      -7.180619e-02      -7.180881e-02 
       1.600000e+00       7.180787e-02      -7.180881e-02 
       1.600000e+00       7.180787e-02       7.180526e-02 
       1.600000e+00      -7.180619e-02       7.180526e-02 
       1.800000e+00      -7.180598e-02      -7.180926e-02 
       1.800000e+00       7.180809e-02      -7.180926e-02 
       1.800000e+00       7.180809e-02       7.180480e-02 
       1.800000e+00      -7.180598e-02       7.180480e-02 
       1.800000e+00      -7.180598e-02      -7.180926e-02 
       1.800000e+00       7.180809e-02      -7.180926e-02 
       1.800000e+00       7.180809e-02       7.180480e-02 
       1.800000e+00      -7.180598e-02       7.180480e-02 
       2.000000e+00      -7.180574e-02      -7.180977e-02 
       2.000000e+00       7.180833e-02      -7.180977e-02 
       2.000000e+00       7.180833e-02       7.180430e-02 
       2.000000e+00      -7.180574e-02       7.180430e-02 
       2.000000e+00      -7.180574e-02      -7.180977e-02 
       2.000000e+00       7.180833e-02      -7.180977e-02 
       2.000000e+00       7.180833e-02       7.180430e-02 
       2.000000e+00      -7.180574e-02       7.180430e-02 
       2.200000e+00      -7.180548e-02      -7.181032e-02 
       2.200000e+00       7.180859e-02      -7.181032e-02 
       2.200000e+00       7.180859e-02       7.180375e-02 
       2.200000e+00      -7.180548e-02       7.180375e-02 
       2.200000e+00      -7.180548e-02      -7.181032e-02 
       2.200000e+00       7.180859e-02      -7.181032e-02 
       2.200000e+00       7.180859e-02       7.180375e-02 
       2.200000e+00      -7.180548e-02       7.180375e-02 
       2.400000e+00      -7.180519e-02      -7.181092e-02 
       2.400000e+00       7.180887e-02      -7.181092e-02 
       2.400000e+00       7.180887e-02       7.180315e-02 
       2.400000e+00      -7.180519e-02       7.180315e-02 
       2.400000e+00      -7.180519e-02      -7.181092e-02 
       2.400000e+00       7.180887e-02      -7.181092e-02 
       2.400000e+00       7.180887e-02       7.180315e-02 
       2.400000e+00      -7.180519e-02       7.180315e-02 
       2.600000e+00      -7.180489e-02      -7.181157e-02 
       2.600000e+00       7.180918e-02      -7.181157e-02 
       2.600000e+00       7.180918e-02       7.180250e-02 
       2.600000e+00      -7.180489e-02       7.180250e-02 
       2.600000e+00      -7.180489e-02      -7.181157e-02 
       2.600000e+00       7.180918e-02      -7.181157e-02 
       2.600000e+00       7.180918e-02       7.180250e-02 
       2.600000e+00      -7.180489e-02       7.180250e-02 
       2.800000e+00      -7.180456e-02      -7.181226e-02 
       2.800000e+00       7.180950e-02      -7.181226e-02 
       2.800000e+00       7.180950e-02       7.180181e-02 
       2.800000e+00      -7.180456e-02       7.180181e-02 
       2.800000e+00      -7.180456e-02      -7.181226e-02 
       2.800000e+00       7.180950e-02      -7.181226e-02 
       2.800000e+00       7.180950e-02       7.180181e-02 
       2.800000e+00      -7.180456e-02       7.180181e-02 
       3.000000e+00      -7.180422e-02      -7.181299e-02 
       3.000000e+00       7.180985e-02      -7.181299e-02 
       3.000000e+00       7.180985e-02       7.180108e-02 
       3.000000e+00      -7.180422e-02       7.180108e-02 
       3.000000e+00      -7.180422e-02      -7.181299e-02 
       3.000000e+00       7.180985e-02      -7.181299e-02 
       3.000000e+00       7.180985e-02       7.180108e-02 
       3.000000e+00      -7.180422e-02       7.180108e-02 
       3.200000e+00      -7.180385e-02      -7.181377e-02 
       3.200000e+00       7.181021e-02      -7.181377e-02 
       3.200000e+00       7.181021e-02       7.180030e-02 
       3.200000e+00      -7.180385e-02       7.180030e-02 
       3.200000e+00      -7.180385e-02      -7.181377e-02 
       3.200000e+00       7.181021e-02      -7.181377e-02 
       3.200000e+00       7.181021e-02       7.180030e-02 
       3.200000e+00      -7.180385e-02       7.180030e-02 
       3.400000e+00      -7.180347e-02      -7.181458e-02 
       3.400000e+00       7.181060e-02      -7.181458e-02 
       3.400000e+00       7.181060e-02       7.179948e-02 
       3.400000e+00      -7.180347e-02       7.179948e-02 
       3.400000e+00      -7.180347e-02      -7.181458e-02 
       3.400000e+00       7.181060e-02      -7.181458e-02 
       3.400000e+00       7.181060e-02       7.179948e-02 
       3.400000e+00      -7.180347e-02       7.179948e-02 
       3.600000e+00      -7.180306e-02      -7.181544e-02 
       3.600000e+00       7.181100e-02      -7.181544e-02 
       3.600000e+00       7.181100e-02       7.179862e-02 
       3.600000e+00      -7.180306e-02       7.179862e-02 
       3.600000e+00      -7.180306e-02      -7.181544e-02 
       3.600000e+00       7.181100e-02      -7.181544e-02 
       3.600000e+00       7.181100e-02       7.179862e-02 
       3.600000e+00      -7.180306e-02       7.179862e-02 
       3.800000e+00      -7.180264e-02      -7.181634e-02 
       3.800000e+00       7.181143e-02      -7.181634e-02 
       3.800000e+00       7.181143e-02       7.179772e-02 
       3.800000e+00      -7.180264e-02       7.179772e-02 
       3.800000e+00      -7.180264e-02      -7.181634e-02 
       3.800000e+00       7.181143e-02      -7.181634e-02 
       3.800000e+00       7.181143e-02       7.179772e-02 
       3.800000e+00      -7.180264e-02       7.179772e-02 
       4.000000e+00      -7.180220e-02      -7.181728e-02 
       3.999999e+00       7.181187e-02      -7.181728e-02 
       4.000000e+00       7.181187e-02       7.179678e-02 
       4.000001e+00      -7.180220e-02       7.179678e-02 
       4.000000e+00      -7.180220e-02      -7.181728e-02 
       3.999999e+00       7.181187e-02      -7.181728e-02 
       4.000000e+00       7.181187e-02       7.179678e-02 
       4.000001e+00      -7.180220e-02       7.179678e-02 
       4.200000e+00      -7.180174e-02      -7.181826e-02 
[...]
POINT_DATA       800 
VECTORS Displacements float
       3.47891880e-23      -2.77555756e-17       0.00000000e+00 
       8.71018280e-26       1.38777878e-17       0.00000000e+00 
      -3.47891880e-23       2.77555756e-17       0.00000000e+00 
      -8.71018280e-26      -1.38777878e-17       0.00000000e+00 
      -1.09278365e-08       1.37350038e-08      -2.89341473e-08 
      -3.05901114e-08       1.37350025e-08      -2.89341087e-08 
       1.08365343e-08       1.37349696e-08      -2.89341147e-08 
       3.04988091e-08       1.37349709e-08      -2.89341532e-08 
      -1.09278365e-08       1.37350038e-08      -2.89341473e-08 
      -3.05901114e-08       1.37350025e-08      -2.89341087e-08 
       1.08365343e-08       1.37349696e-08      -2.89341147e-08 
       3.04988091e-08       1.37349709e-08      -2.89341532e-08 
      -2.16645536e-08       5.45884928e-08      -1.15030013e-07 
      -6.06105148e-08       5.45884875e-08      -1.15029930e-07 
       2.14817577e-08       5.45884272e-08      -1.15029954e-07 
       6.04277189e-08       5.45884325e-08      -1.15030036e-07 
      -2.16645536e-08       5.45884928e-08      -1.15030013e-07 
      -6.06105148e-08       5.45884875e-08      -1.15029930e-07 
       2.14817577e-08       5.45884272e-08      -1.15029954e-07 
       6.04277189e-08       5.45884325e-08      -1.15030036e-07 
      -3.22101495e-08       1.22033236e-07      -2.57227787e-07 
      -9.00612086e-08       1.22033225e-07      -2.57227655e-07 
       3.19356722e-08       1.22033142e-07      -2.57227707e-07 
       8.97867313e-08       1.22033154e-07      -2.57227839e-07 
      -3.22101495e-08       1.22033236e-07      -2.57227787e-07 
      -9.00612086e-08       1.22033225e-07      -2.57227655e-07 
       3.19356722e-08       1.22033142e-07      -2.57227707e-07 
       8.97867313e-08       1.22033154e-07      -2.57227839e-07 
      -4.25646226e-08       2.15542005e-07      -4.54467658e-07 
      -1.18942191e-07       2.15541984e-07      -4.54467472e-07 
       4.21982796e-08       2.15541884e-07      -4.54467563e-07 
       1.18575848e-07       2.15541905e-07      -4.54467748e-07 
      -4.25646226e-08       2.15542005e-07      -4.54467658e-07 
      -1.18942191e-07       2.15541984e-07      -4.54467472e-07 
       4.21982796e-08       2.15541884e-07      -4.54467563e-07 
       1.18575848e-07       2.15541905e-07      -4.54467748e-07 
      -5.27279710e-08       3.34587567e-07      -7.05689816e-07 
      -1.47253460e-07       3.34587536e-07      -7.05689571e-07 
       5.22695813e-08       3.34587423e-07      -7.05689710e-07 
       1.46795071e-07       3.34587454e-07      -7.05689954e-07 
      -5.27279710e-08       3.34587567e-07      -7.05689816e-07 
      -1.47253460e-07       3.34587536e-07      -7.05689571e-07 
       5.22695813e-08       3.34587423e-07      -7.05689710e-07 
       1.46795071e-07       3.34587454e-07      -7.05689954e-07 
      -6.27001928e-08       4.78642693e-07      -1.00983445e-06 
      -1.74995014e-07       4.78642649e-07      -1.00983414e-06 
       6.21495797e-08       4.78642528e-07      -1.00983434e-06 
       1.74444401e-07       4.78642571e-07      -1.00983465e-06 
      -6.27001928e-08       4.78642693e-07      -1.00983445e-06 
      -1.74995014e-07       4.78642649e-07      -1.00983414e-06 
       6.21495797e-08       4.78642528e-07      -1.00983434e-06 
       1.74444401e-07       4.78642571e-07      -1.00983465e-06 
      -7.24812863e-08       6.47180152e-07      -1.36584175e-06 
      -2.02166852e-07       6.47180094e-07      -1.36584138e-06 
       7.18382760e-08       6.47179968e-07      -1.36584164e-06 
       2.01523841e-07       6.47180026e-07      -1.36584201e-06 
      -7.24812863e-08       6.47180152e-07      -1.36584175e-06 
      -2.02166852e-07       6.47180094e-07      -1.36584138e-06 
       7.18382760e-08       6.47179968e-07      -1.36584164e-06 
       2.01523841e-07       6.47180026e-07      -1.36584201e-06 
      -8.20712496e-08       8.39672715e-07      -1.77265190e-06 
      -2.28768970e-07       8.39672640e-07      -1.77265146e-06 
       8.13356731e-08       8.39672513e-07      -1.77265179e-06 
       2.28033393e-07       8.39672588e-07      -1.77265224e-06 
      -8.20712496e-08       8.39672715e-07      -1.77265190e-06 
      -2.28768970e-07       8.39672640e-07      -1.77265146e-06 
       8.13356731e-08       8.39672513e-07      -1.77265179e-06 
       2.28033393e-07       8.39672588e-07      -1.77265224e-06 
      -9.14700813e-08       1.05559315e-06      -2.22920510e-06 
      -2.54801368e-07       1.05559306e-06      -2.22920459e-06 
       9.06417708e-08       1.05559293e-06      -2.22920500e-06 
       2.53973058e-07       1.05559303e-06      -2.22920552e-06 
      -9.14700813e-08       1.05559315e-06      -2.22920510e-06 
      -2.54801368e-07       1.05559306e-06      -2.22920459e-06 
       9.06417708e-08       1.05559293e-06      -2.22920500e-06 
       2.53973058e-07       1.05559303e-06      -2.22920552e-06 
      -1.00677779e-07       1.29441423e-06      -2.73444154e-06 
      -2.80264044e-07       1.29441412e-06      -2.73444094e-06 
       9.97565723e-08       1.29441400e-06      -2.73444144e-06 
       2.79342838e-07       1.29441411e-06      -2.73444204e-06 
      -1.00677779e-07       1.29441423e-06      -2.73444154e-06 
      -2.80264044e-07       1.29441412e-06      -2.73444094e-06 
       9.97565728e-08       1.29441400e-06      -2.73444144e-06 
       2.79342838e-07       1.29441411e-06      -2.73444204e-06 
      -1.09688092e-07       1.55561810e-06      -3.28731909e-06 
      -3.05170826e-07       1.55561796e-06      -3.28731843e-06 
       1.08703885e-07       1.55561787e-06      -3.28731903e-06 
       3.04186619e-07       1.55561800e-06      -3.28731969e-06 
      -1.09688092e-07       1.55561810e-06      -3.28731909e-06 
      -3.05170826e-07       1.55561796e-06      -3.28731843e-06 
       1.08703885e-07       1.55561787e-06      -3.28731903e-06 
       3.04186619e-07       1.55561800e-06      -3.28731969e-06 
      -1.18524226e-07       1.83872368e-06      -3.88686367e-06 
      -3.29564433e-07       1.83872352e-06      -3.88686294e-06 
       1.17476591e-07       1.83872345e-06      -3.88686363e-06 
       3.28516797e-07       1.83872361e-06      -3.88686436e-06 
      -1.18524226e-07       1.83872368e-06      -3.88686367e-06 
      -3.29564433e-07       1.83872352e-06      -3.88686294e-06 
       1.17476591e-07       1.83872345e-06      -3.88686363e-06 
       3.28516797e-07       1.83872361e-06      -3.88686436e-06 
      -1.27186177e-07       2.14325888e-06      -4.53211744e-06 
      -3.53444862e-07       2.14325870e-06      -4.53211664e-06 
       1.26074693e-07       2.14325866e-06      -4.53211744e-06 
       3.52333378e-07       2.14325884e-06      -4.53211824e-06 
      -1.27186177e-07       2.14325888e-06      -4.53211744e-06 
      -3.53444862e-07       2.14325870e-06      -4.53211664e-06 
       1.26074693e-07       2.14325866e-06      -4.53211744e-06 
       3.52333378e-07       2.14325884e-06      -4.53211824e-06 
      -1.35673940e-07       2.46875161e-06      -5.22212260e-06 
      -3.76812108e-07       2.46875141e-06      -5.22212173e-06 
       1.34498197e-07       2.46875140e-06      -5.22212264e-06 
       3.75636365e-07       2.46875160e-06      -5.22212351e-06 
      -1.35673940e-07       2.46875161e-06      -5.22212260e-06 
      -3.76812108e-07       2.46875141e-06      -5.22212173e-06 
       1.34498197e-07       2.46875140e-06      -5.22212264e-06 
       3.75636365e-07       2.46875160e-06      -5.22212351e-06 
      -1.43987511e-07       2.81472978e-06      -5.95592132e-06 
      -3.99666166e-07       2.81472955e-06      -5.95592037e-06 
       1.42747107e-07       2.81472957e-06      -5.95592140e-06 
       3.98425763e-07       2.81472980e-06      -5.95592235e-06 
      -1.43987511e-07       2.81472978e-06      -5.95592132e-06 
      -3.99666166e-07       2.81472955e-06      -5.95592037e-06 
       1.42747107e-07       2.81472957e-06      -5.95592140e-06 
       3.98425763e-07       2.81472980e-06      -5.95592235e-06 
      -1.52126884e-07       3.18072130e-06      -6.73255578e-06 
      -4.22007032e-07       3.18072104e-06      -6.73255476e-06 
       1.50821427e-07       3.18072110e-06      -6.73255590e-06 
       4.20701575e-07       3.18072135e-06      -6.73255693e-06 
      -1.52126884e-07       3.18072130e-06      -6.73255578e-06 
      -4.22007032e-07       3.18072104e-06      -6.73255476e-06 
       1.50821427e-07       3.18072110e-06      -6.73255590e-06 
       4.20701575e-07       3.18072135e-06      -6.73255693e-06 
      -1.60092057e-07       3.56625407e-06      -7.55106817e-06 
      -4.43834702e-07       3.56625379e-06      -7.55106707e-06 
       1.58721163e-07       3.56625387e-06      -7.55106833e-06 
       4.42463808e-07       3.56625415e-06      -7.55106944e-06 
      -1.60092057e-07       3.56625407e-06      -7.55106817e-06 
      -4.43834702e-07       3.56625379e-06      -7.55106707e-06 
       1.58721163e-07       3.56625387e-06      -7.55106833e-06 
       4.42463808e-07       3.56625415e-06      -7.55106944e-06 
      -1.67883023e-07       3.97085600e-06      -8.41050067e-06 
      -4.65149171e-07       3.97085569e-06      -8.41049948e-06 
       1.66446318e-07       3.97085581e-06      -8.41050087e-06 
       4.63712465e-07       3.97085612e-06      -8.41050206e-06 
      -1.67883023e-07       3.97085600e-06      -8.41050067e-06 
      -4.65149171e-07       3.97085569e-06      -8.41049948e-06 
       1.66446318e-07       3.97085581e-06      -8.41050087e-06 
       4.63712465e-07       3.97085612e-06      -8.41050206e-06 
      -1.75499779e-07       4.39405500e-06      -9.30989545e-06 
      -4.85950434e-07       4.39405466e-06      -9.30989418e-06 
       1.73996896e-07       4.39405483e-06      -9.30989570e-06 
       4.84447551e-07       4.39405516e-06      -9.30989696e-06 
      -1.75499779e-07       4.39405500e-06      -9.30989545e-06 
      -4.85950434e-07       4.39405466e-06      -9.30989418e-06 
       1.73996896e-07       4.39405483e-06      -9.30989570e-06 
       4.84447551e-07       4.39405516e-06      -9.30989696e-06 
      -1.82942321e-07       4.83537898e-06      -1.02482947e-05 
      -5.06238488e-07       4.83537862e-06      -1.02482933e-05 
       1.81372902e-07       4.83537882e-06      -1.02482950e-05 
       5.04669069e-07       4.83537918e-06      -1.02482963e-05 
      -1.82942321e-07       4.83537898e-06      -1.02482947e-05 
      -5.06238488e-07       4.83537862e-06      -1.02482933e-05 
       1.81372902e-07       4.83537882e-06      -1.02482950e-05 
       5.04669068e-07       4.83537918e-06      -1.02482963e-05 
      -1.90207982e-07       5.29436492e-06      -1.12247570e-05 
      -5.26030298e-07       5.29436453e-06      -1.12247556e-05 
       1.88593224e-07       5.29436478e-06      -1.12247574e-05 
       5.24415540e-07       5.29436517e-06      -1.12247588e-05 
      -1.90207982e-07       5.29436492e-06      -1.12247570e-05 
      -5.26030298e-07       5.29436453e-06      -1.12247556e-05 
       1.88593224e-07       5.29436478e-06      -1.12247574e-05 
       5.24415540e-07       5.29436517e-06      -1.12247588e-05 
      -1.97316428e-07       5.77058654e-06      -1.22384092e-05 
      -5.45365446e-07       5.77058612e-06      -1.22384077e-05 
       1.95655818e-07       5.77058642e-06      -1.22384097e-05 
       5.43704836e-07       5.77058684e-06      -1.22384111e-05 
      -1.97316428e-07       5.77058654e-06      -1.22384092e-05 
      -5.45365446e-07       5.77058612e-06      -1.22384077e-05 
       1.95655818e-07       5.77058642e-06      -1.22384097e-05 
       5.43704836e-07       5.77058684e-06      -1.22384111e-05 
      -2.04267653e-07       6.26362681e-06      -1.32883957e-05 
      -5.64243925e-07       6.26362636e-06      -1.32883941e-05 
       2.02560691e-07       6.26362671e-06      -1.32883962e-05 
       5.62536963e-07       6.26362716e-06      -1.32883977e-05 
      -2.04267653e-07       6.26362681e-06      -1.32883957e-05 
      -5.64243925e-07       6.26362636e-06      -1.32883941e-05 
       2.02560691e-07       6.26362671e-06      -1.32883962e-05 
       5.62536963e-07       6.26362716e-06      -1.32883977e-05 
      -2.11061653e-07       6.77306872e-06      -1.43738608e-05 
      -5.82665731e-07       6.77306824e-06      -1.43738591e-05 
       2.09307847e-07       6.77306864e-06      -1.43738613e-05 
       5.80911926e-07       6.77306912e-06      -1.43738630e-05 
      -2.11061653e-07       6.77306872e-06      -1.43738608e-05 
      -5.82665731e-07       6.77306824e-06      -1.43738591e-05 
       2.09307847e-07       6.77306864e-06      -1.43738613e-05 
       5.80911926e-07       6.77306912e-06      -1.43738630e-05 
      -2.17698419e-07       7.29849525e-06      -1.54939489e-05 
      -6.00630856e-07       7.29849474e-06      -1.54939472e-05 
       2.15897293e-07       7.29849520e-06      -1.54939495e-05 
       5.98829731e-07       7.29849571e-06      -1.54939512e-05 
      -2.17698419e-07       7.29849525e-06      -1.54939489e-05 
      -6.00630856e-07       7.29849474e-06      -1.54939472e-05 
       2.15897293e-07       7.29849520e-06      -1.54939495e-05 
       5.98829731e-07       7.29849571e-06      -1.54939512e-05 
      -2.24177947e-07       7.83948939e-06      -1.66478044e-05 
      -6.18139295e-07       7.83948885e-06      -1.66478026e-05 
       2.22329036e-07       7.83948936e-06      -1.66478051e-05 
       6.16290384e-07       7.83948990e-06      -1.66478069e-05 
      -2.24177947e-07       7.83948939e-06      -1.66478044e-05 
      -6.18139295e-07       7.83948885e-06      -1.66478026e-05 
       2.22329036e-07       7.83948936e-06      -1.66478051e-05 
       6.16290384e-07       7.83948990e-06      -1.66478069e-05 
      -2.30500230e-07       8.39563412e-06      -1.78345717e-05 
      -6.35191043e-07       8.39563354e-06      -1.78345699e-05 
       2.28603080e-07       8.39563410e-06      -1.78345725e-05 
       6.33293892e-07       8.39563467e-06      -1.78345743e-05 
      -2.30500230e-07       8.39563412e-06      -1.78345717e-05 
      -6.35191043e-07       8.39563354e-06      -1.78345699e-05 
       2.28603080e-07       8.39563410e-06      -1.78345725e-05 
       6.33293892e-07       8.39563467e-06      -1.78345743e-05 
      -2.36665263e-07       8.96651241e-06      -1.90533952e-05 
      -6.51786091e-07       8.96651181e-06      -1.90533933e-05 
       2.34719433e-07       8.96651242e-06      -1.90533960e-05 
       6.49840261e-07       8.96651302e-06      -1.90533980e-05 
      -2.36665263e-07       8.96651241e-06      -1.90533952e-05 
      -6.51786091e-07       8.96651181e-06      -1.90533933e-05 
       2.34719433e-07       8.96651242e-06      -1.90533960e-05 
       6.49840261e-07       8.96651302e-06      -1.90533980e-05 
      -2.42673040e-07       9.55170726e-06      -2.03034193e-05 
      -6.67924436e-07       9.55170663e-06      -2.03034173e-05 
       2.40678100e-07       9.55170729e-06      -2.03034202e-05 
       6.65929496e-07       9.55170792e-06      -2.03034222e-05 
      -2.42673040e-07       9.55170726e-06      -2.03034193e-05 
      -6.67924436e-07       9.55170663e-06      -2.03034173e-05 
       2.40678100e-07       9.55170729e-06      -2.03034202e-05 
       6.65929496e-07       9.55170792e-06      -2.03034222e-05 
      -2.48523555e-07       1.01508016e-05      -2.15837884e-05 
      -6.83606071e-07       1.01508010e-05      -2.15837863e-05 
       2.46479086e-07       1.01508017e-05      -2.15837893e-05 
       6.81561602e-07       1.01508024e-05      -2.15837914e-05 
      -2.48523555e-07       1.01508016e-05      -2.15837884e-05 
      -6.83606071e-07       1.01508010e-05      -2.15837863e-05 
       2.46479085e-07       1.01508017e-05      -2.15837893e-05 
       6.81561602e-07       1.01508024e-05      -2.15837914e-05 
      -2.54217685e-07       1.07633876e-05      -2.28936634e-05 
      -6.98851573e-07       1.07633869e-05      -2.28936612e-05 
       2.52138168e-07       1.07633877e-05      -2.28936643e-05 
       6.96772055e-07       1.07633884e-05      -2.28936665e-05 
      -2.54217685e-07       1.07633876e-05      -2.28936634e-05 
      -6.98851573e-07       1.07633869e-05      -2.28936612e-05 
       2.52138168e-07       1.07633877e-05      -2.28936643e-05 
       6.96772055e-07       1.07633884e-05      -2.28936665e-05 
      -2.59772166e-07       1.13890943e-05      -2.42322749e-05 
      -7.13697828e-07       1.13890936e-05      -2.42322727e-05 
       2.57657102e-07       1.13890944e-05      -2.42322760e-05 
       7.11582763e-07       1.13890951e-05      -2.42322782e-05 
      -2.59772166e-07       1.13890943e-05      -2.42322749e-05 
      -7.13697828e-07       1.13890936e-05      -2.42322727e-05 
       2.57657102e-07       1.13890944e-05      -2.42322760e-05 
       7.11582763e-07       1.13890951e-05      -2.42322782e-05 
      -2.65186990e-07       1.20275601e-05      -2.55988719e-05 
      -7.28144829e-07       1.20275594e-05      -2.55988696e-05 
       2.63035896e-07       1.20275603e-05      -2.55988730e-05 
       7.25993734e-07       1.20275610e-05      -2.55988754e-05 
      -2.65186990e-07       1.20275601e-05      -2.55988719e-05 
      -7.28144829e-07       1.20275594e-05      -2.55988696e-05 
       2.63035896e-07       1.20275603e-05      -2.55988730e-05 
       7.25993734e-07       1.20275610e-05      -2.55988754e-05 
      -2.70462152e-07       1.26784236e-05      -2.69927032e-05 
      -7.42192571e-07       1.26784228e-05      -2.69927008e-05 
       2.68274554e-07       1.26784238e-05      -2.69927043e-05 
       7.40004973e-07       1.26784246e-05      -2.69927067e-05 
      -2.70462152e-07       1.26784236e-05      -2.69927032e-05 
      -7.42192571e-07       1.26784228e-05      -2.69927008e-05 
       2.68274554e-07       1.26784238e-05      -2.69927043e-05 
       7.40004973e-07       1.26784246e-05      -2.69927067e-05 
      -2.75597645e-07       1.33413232e-05      -2.84130175e-05 
      -7.55841048e-07       1.33413224e-05      -2.84130150e-05 
       2.73373084e-07       1.33413234e-05      -2.84130187e-05 
       7.53616486e-07       1.33413242e-05      -2.84130211e-05 
      -2.75597645e-07       1.33413232e-05      -2.84130175e-05 
      -7.55841048e-07       1.33413224e-05      -2.84130150e-05 
       2.73373084e-07       1.33413234e-05      -2.84130187e-05 
       7.53616486e-07       1.33413242e-05      -2.84130211e-05 
      -2.80593463e-07       1.40158974e-05      -2.98590636e-05 
      -7.69090250e-07       1.40158966e-05      -2.98590611e-05 
       2.78331492e-07       1.40158976e-05      -2.98590649e-05 
       7.66828279e-07       1.40158985e-05      -2.98590675e-05 
      -2.80593463e-07       1.40158974e-05      -2.98590636e-05 
      -7.69090250e-07       1.40158966e-05      -2.98590611e-05 
       2.78331492e-07       1.40158976e-05      -2.98590649e-05 
       7.66828279e-07       1.40158985e-05      -2.98590675e-05 
      -2.85449598e-07       1.47017847e-05      -3.13300905e-05 
      -7.81940174e-07       1.47017838e-05      -3.13300880e-05 
       2.83149785e-07       1.47017849e-05      -3.13300919e-05 
       7.79640361e-07       1.47017858e-05      -3.13300945e-05 
      -2.85449598e-07       1.47017847e-05      -3.13300905e-05 
      -7.81940174e-07       1.47017838e-05      -3.13300880e-05 
       2.83149785e-07       1.47017849e-05      -3.13300919e-05 
       7.79640361e-07       1.47017858e-05      -3.13300945e-05 
      -2.90166043e-07       1.53986235e-05      -3.28253470e-05 
      -7.94390811e-07       1.53986226e-05      -3.28253444e-05 
       2.87827971e-07       1.53986238e-05      -3.28253484e-05 
       7.92052738e-07       1.53986247e-05      -3.28253511e-05 
      -2.90166043e-07       1.53986235e-05      -3.28253470e-05 
      -7.94390811e-07       1.53986226e-05      -3.28253444e-05 