# vtk DataFile Version 2.0
./output/onsasExample_BladeCantileverBeamNoPitch_windVel3DDynamic 3D/onsasExample_BladeCantileverBeamNoPitch_windVel3DDynamic 3D_0128.vtk
ASCII
DATASET UNSTRUCTURED_GRID

POINTS 800 float
       5.740487e-24      -7.180703e-02      -7.180703e-02 
       2.183647e-23       7.180703e-02      -7.180703e-02 
      -5.740487e-24       7.180703e-02       7.180703e-02 
      -2.183647e-23      -7.180703e-02       7.180703e-02 
       2.000000e-01      -7.180702e-02      -7.180706e-02 
       2.000000e-01       7.180705e-02      -7.180706e-02 
       2.000000e-01       7.180705e-02       7.180701e-02 
       2.000000e-01      -7.180702e-02       7.180701e-02 
       2.000000e-01      -7.180702e-02      -7.180706e-02 
       2.000000e-01       7.180705e-02      -7.180706e-02 
       2.000000e-01       7.180705e-02       7.180701e-02 
       2.000000e-01      -7.180702e-02       7.180701e-02 
       4.000000e-01      -7.180698e-02      -7.180713e-02 
       3.999999e-01       7.180709e-02      -7.180713e-02 
       4.000000e-01       7.180709e-02       7.180694e-02 
       4.000001e-01      -7.180698e-02       7.180694e-02 
       4.000000e-01      -7.180698e-02      -7.180713e-02 
       3.999999e-01       7.180709e-02      -7.180713e-02 
       4.000000e-01       7.180709e-02       7.180694e-02 
       4.000001e-01      -7.180698e-02       7.180694e-02 
       6.000000e-01      -7.180691e-02      -7.180724e-02 
       5.999999e-01       7.180716e-02      -7.180724e-02 
       6.000000e-01       7.180716e-02       7.180682e-02 
       6.000001e-01      -7.180691e-02       7.180682e-02 
       6.000000e-01      -7.180691e-02      -7.180724e-02 
       5.999999e-01       7.180716e-02      -7.180724e-02 
       6.000000e-01       7.180716e-02       7.180682e-02 
       6.000001e-01      -7.180691e-02       7.180682e-02 
       8.000000e-01      -7.180682e-02      -7.180741e-02 
       7.999999e-01       7.180725e-02      -7.180741e-02 
       8.000000e-01       7.180725e-02       7.180666e-02 
       8.000001e-01      -7.180682e-02       7.180666e-02 
       8.000000e-01      -7.180682e-02      -7.180741e-02 
       7.999999e-01       7.180725e-02      -7.180741e-02 
       8.000000e-01       7.180725e-02       7.180666e-02 
       8.000001e-01      -7.180682e-02       7.180666e-02 
       1.000000e+00      -7.180669e-02      -7.180761e-02 
       9.999999e-01       7.180737e-02      -7.180761e-02 
       1.000000e+00       7.180737e-02       7.180646e-02 
       1.000000e+00      -7.180669e-02       7.180646e-02 
       1.000000e+00      -7.180669e-02      -7.180761e-02 
       9.999999e-01       7.180737e-02      -7.180761e-02 
       1.000000e+00       7.180737e-02       7.180646e-02 
       1.000000e+00      -7.180669e-02       7.180646e-02 
       1.200000e+00      -7.180655e-02      -7.180786e-02 
       1.200000e+00       7.180752e-02      -7.180786e-02 
       1.200000e+00       7.180752e-02       7.180621e-02 
       1.200000e+00      -7.180655e-02       7.180621e-02 
       1.200000e+00      -7.180655e-02      -7.180786e-02 
       1.200000e+00       7.180752e-02      -7.180786e-02 
       1.200000e+00       7.180752e-02       7.180621e-02 
       1.200000e+00      -7.180655e-02       7.180621e-02 
       1.400000e+00      -7.180638e-02      -7.180815e-02 
       1.400000e+00       7.180769e-02      -7.180815e-02 
       1.400000e+00       7.180769e-02       7.180592e-02 
       1.400000e+00      -7.180638e-02       7.180592e-02 
       1.400000e+00      -7.180638e-02      -7.180815e-02 
       1.400000e+00       7.180769e-02      -7.180815e-02 
       1.400000e+00       7.180769e-02       7.180592e-02 
       1.400000e+00      -7.180638e-02       7.180592e-02 
       1.600000e+00      -7.180618e-02      -7.180848e-02 
       1.600000e+00       7.180788e-02      -7.180848e-02 
       1.600000e+00       7.180788e-02       7.180558e-02 
       1.600000e+00      -7.180618e-02       7.180558e-02 
       1.600000e+00      -7.180618e-02      -7.180848e-02 
       1.600000e+00       7.180788e-02      -7.180848e-02 
       1.600000e+00       7.180788e-02       7.180558e-02 
       1.600000e+00      -7.180618e-02       7.180558e-02 
       1.800000e+00      -7.180597e-02      -7.180885e-02 
       1.800000e+00       7.180810e-02      -7.180885e-02 
       1.800000e+00       7.180810e-02       7.180521e-02 
       1.800000e+00      -7.180597e-02       7.180521e-02 
       1.800000e+00      -7.180597e-02      -7.180885e-02 
       1.800000e+00       7.180810e-02      -7.180885e-02 
       1.800000e+00       7.180810e-02       7.180521e-02 
       1.800000e+00      -7.180597e-02       7.180521e-02 
       2.000000e+00      -7.180572e-02      -7.180927e-02 
       2.000000e+00       7.180834e-02      -7.180927e-02 
       2.000000e+00       7.180834e-02       7.180480e-02 
       2.000000e+00      -7.180572e-02       7.180480e-02 
       2.000000e+00      -7.180572e-02      -7.180927e-02 
       2.000000e+00       7.180834e-02      -7.180927e-02 
       2.000000e+00       7.180834e-02       7.180480e-02 
       2.000000e+00      -7.180572e-02       7.180480e-02 
       2.200000e+00      -7.180546e-02      -7.180972e-02 
       2.200000e+00       7.180861e-02      -7.180972e-02 
       2.200000e+00       7.180861e-02       7.180435e-02 
       2.200000e+00      -7.180546e-02       7.180435e-02 
       2.200000e+00      -7.180546e-02      -7.180972e-02 
       2.200000e+00       7.180861e-02      -7.180972e-02 
       2.200000e+00       7.180861e-02       7.180435e-02 
       2.200000e+00      -7.180546e-02       7.180435e-02 
       2.400000e+00      -7.180517e-02      -7.181020e-02 
       2.400000e+00       7.180889e-02      -7.181020e-02 
       2.400000e+00       7.180889e-02       7.180386e-02 
       2.400000e+00      -7.180517e-02       7.180386e-02 
       2.400000e+00      -7.180517e-02      -7.181020e-02 
       2.400000e+00       7.180889e-02      -7.181020e-02 
       2.400000e+00       7.180889e-02       7.180386e-02 
       2.400000e+00      -7.180517e-02       7.180386e-02 
       2.600000e+00      -7.180486e-02      -7.181073e-02 
       2.600000e+00       7.180920e-02      -7.181073e-02 
       2.600000e+00       7.180920e-02       7.180334e-02 
       2.600000e+00      -7.180486e-02       7.180334e-02 
       2.600000e+00      -7.180486e-02      -7.181073e-02 
       2.600000e+00       7.180920e-02      -7.181073e-02 
       2.600000e+00       7.180920e-02       7.180334e-02 
       2.600000e+00      -7.180486e-02       7.180334e-02 
       2.800000e+00      -7.180453e-02      -7.181129e-02 
       2.800000e+00       7.180953e-02      -7.181129e-02 
       2.800000e+00       7.180953e-02       7.180278e-02 
       2.800000e+00      -7.180453e-02       7.180278e-02 
       2.800000e+00      -7.180453e-02      -7.181129e-02 
       2.800000e+00       7.180953e-02      -7.181129e-02 
       2.800000e+00       7.180953e-02       7.180278e-02 
       2.800000e+00      -7.180453e-02       7.180278e-02 
       3.000000e+00      -7.180418e-02      -7.181188e-02 
       3.000000e+00       7.180988e-02      -7.181188e-02 
       3.000000e+00       7.180988e-02       7.180219e-02 
       3.000000e+00      -7.180418e-02       7.180219e-02 
       3.000000e+00      -7.180418e-02      -7.181188e-02 
       3.000000e+00       7.180988e-02      -7.181188e-02 
       3.000000e+00       7.180988e-02       7.180219e-02 
       3.000000e+00      -7.180418e-02       7.180219e-02 
       3.200000e+00      -7.180381e-02      -7.181251e-02 
       3.200000e+00       7.181025e-02      -7.181251e-02 
       3.200000e+00       7.181025e-02       7.180156e-02 
       3.200000e+00      -7.180381e-02       7.180156e-02 
       3.200000e+00      -7.180381e-02      -7.181251e-02 
       3.200000e+00       7.181025e-02      -7.181251e-02 
       3.200000e+00       7.181025e-02       7.180156e-02 
       3.200000e+00      -7.180381e-02       7.180156e-02 
       3.400000e+00      -7.180342e-02      -7.181317e-02 
       3.400000e+00       7.181064e-02      -7.181317e-02 
       3.400000e+00       7.181064e-02       7.180090e-02 
       3.400000e+00      -7.180342e-02       7.180090e-02 
       3.400000e+00      -7.180342e-02      -7.181317e-02 
       3.400000e+00       7.181064e-02      -7.181317e-02 
       3.400000e+00       7.181064e-02       7.180090e-02 
       3.400000e+00      -7.180342e-02       7.180090e-02 
       3.600000e+00      -7.180301e-02      -7.181387e-02 
       3.600000e+00       7.181105e-02      -7.181387e-02 
       3.600000e+00       7.181105e-02       7.180020e-02 
       3.600000e+00      -7.180301e-02       7.180020e-02 
       3.600000e+00      -7.180301e-02      -7.181387e-02 
       3.600000e+00       7.181105e-02      -7.181387e-02 
       3.600000e+00       7.181105e-02       7.180020e-02 
       3.600000e+00      -7.180301e-02       7.180020e-02 
       3.800000e+00      -7.180258e-02      -7.181459e-02 
       3.800000e+00       7.181148e-02      -7.181459e-02 
       3.800000e+00       7.181148e-02       7.179948e-02 
       3.800000e+00      -7.180258e-02       7.179948e-02 
       3.800000e+00      -7.180258e-02      -7.181459e-02 
       3.800000e+00       7.181148e-02      -7.181459e-02 
       3.800000e+00       7.181148e-02       7.179948e-02 
       3.800000e+00      -7.180258e-02       7.179948e-02 
       4.000000e+00      -7.180214e-02      -7.181535e-02 
       4.000000e+00       7.181193e-02      -7.181535e-02 
       4.000000e+00       7.181193e-02       7.179872e-02 
       4.000000e+00      -7.180214e-02       7.179872e-02 
       4.000000e+00      -7.180214e-02      -7.181535e-02 
       4.000000e+00       7.181193e-02      -7.181535e-02 
       4.000000e+00       7.181193e-02       7.179872e-02 
       4.000000e+00      -7.180214e-02       7.179872e-02 
       4.200000e+00      -7.180167e-02      -7.181613e-02 
[...]
POINT_DATA       800 
VECTORS Displacements float
       5.74048736e-24      -1.38777878e-17       0.00000000e+00 
       2.18364666e-23       1.38777878e-17       0.00000000e+00 
      -5.74048736e-24       1.38777878e-17       0.00000000e+00 
      -2.18364666e-23      -1.38777878e-17       0.00000000e+00 
      -7.09899084e-09       1.38854510e-08      -2.37553237e-08 
      -2.69773192e-08       1.38854497e-08      -2.37552977e-08 
       7.02465350e-09       1.38854284e-08      -2.37553018e-08 
       2.69029819e-08       1.38854298e-08      -2.37553277e-08 
      -7.09899084e-09       1.38854510e-08      -2.37553237e-08 
      -2.69773192e-08       1.38854497e-08      -2.37552977e-08 
       7.02465350e-09       1.38854284e-08      -2.37553018e-08 
       2.69029819e-08       1.38854298e-08      -2.37553277e-08 
      -1.40454071e-08       5.51901925e-08      -9.43862478e-08 
      -5.34233663e-08       5.51901871e-08      -9.43861913e-08 
       1.38965918e-08       5.51901491e-08      -9.43862071e-08 
       5.32745510e-08       5.51901545e-08      -9.43862636e-08 
      -1.40454071e-08       5.51901925e-08      -9.43862478e-08 
      -5.34233663e-08       5.51901871e-08      -9.43861913e-08 
       1.38965918e-08       5.51901491e-08      -9.43862071e-08 
       5.32745510e-08       5.51901545e-08      -9.43862636e-08 
      -2.08392472e-08       1.23386842e-07      -2.10940237e-07 
      -7.93381398e-08       1.23386830e-07      -2.10940146e-07 
       2.06158163e-08       1.23386780e-07      -2.10940181e-07 
       7.91147089e-08       1.23386792e-07      -2.10940272e-07 
      -2.08392472e-08       1.23386842e-07      -2.10940237e-07 
      -7.93381398e-08       1.23386830e-07      -2.10940146e-07 
       2.06158163e-08       1.23386780e-07      -2.10940181e-07 
       7.91147089e-08       1.23386792e-07      -2.10940272e-07 
      -2.74805099e-08       2.17948018e-07      -3.72464757e-07 
      -1.04721638e-07       2.17947998e-07      -3.72464627e-07 
       2.71823284e-08       2.17947939e-07      -3.72464687e-07 
       1.04423457e-07       2.17947959e-07      -3.72464817e-07 
      -2.74805099e-08       2.17948018e-07      -3.72464757e-07 
      -1.04721638e-07       2.17947998e-07      -3.72464627e-07 
       2.71823284e-08       2.17947939e-07      -3.72464687e-07 
       1.04423457e-07       2.17947959e-07      -3.72464817e-07 
      -3.39691937e-08       3.38346339e-07      -5.78007271e-07 
      -1.29573861e-07       3.38346307e-07      -5.78007098e-07 
       3.35961297e-08       3.38346243e-07      -5.78007191e-07 
       1.29200797e-07       3.38346275e-07      -5.78007364e-07 
      -3.39691937e-08       3.38346339e-07      -5.78007271e-07 
      -1.29573861e-07       3.38346307e-07      -5.78007098e-07 
       3.35961297e-08       3.38346243e-07      -5.78007191e-07 
       1.29200797e-07       3.38346275e-07      -5.78007364e-07 
      -4.03052971e-08       4.84054421e-07      -8.26615245e-07 
      -1.53894805e-07       4.84054376e-07      -8.26615026e-07 
       3.98572211e-08       4.84054311e-07      -8.26615157e-07 
       1.53446729e-07       4.84054356e-07      -8.26615376e-07 
      -4.03052971e-08       4.84054421e-07      -8.26615245e-07 
      -1.53894805e-07       4.84054376e-07      -8.26615026e-07 
       3.98572211e-08       4.84054311e-07      -8.26615157e-07 
       1.53446729e-07       4.84054356e-07      -8.26615376e-07 
      -4.64888190e-08       6.54544883e-07      -1.11733614e-06 
      -1.77684470e-07       6.54544823e-07      -1.11733588e-06 
       4.59656044e-08       6.54544760e-07      -1.11733605e-06 
       1.77161256e-07       6.54544820e-07      -1.11733632e-06 
      -4.64888190e-08       6.54544883e-07      -1.11733614e-06 
      -1.77684470e-07       6.54544823e-07      -1.11733588e-06 
       4.59656044e-08       6.54544760e-07      -1.11733605e-06 
       1.77161256e-07       6.54544820e-07      -1.11733632e-06 
      -5.25197581e-08       8.49290343e-07      -1.44921743e-06 
      -2.00942855e-07       8.49290266e-07      -1.44921711e-06 
       5.19212813e-08       8.49290208e-07      -1.44921733e-06 
       2.00344379e-07       8.49290284e-07      -1.44921765e-06 
      -5.25197581e-08       8.49290343e-07      -1.44921743e-06 
      -2.00942855e-07       8.49290266e-07      -1.44921711e-06 
       5.19212813e-08       8.49290208e-07      -1.44921733e-06 
       2.00344379e-07       8.49290284e-07      -1.44921765e-06 
      -5.83981123e-08       1.06776342e-06      -1.82130657e-06 
      -2.23669958e-07       1.06776332e-06      -1.82130620e-06 
       5.77242527e-08       1.06776327e-06      -1.82130647e-06 
       2.22996099e-07       1.06776337e-06      -1.82130685e-06 
      -5.83981123e-08       1.06776342e-06      -1.82130657e-06 
      -2.23669958e-07       1.06776332e-06      -1.82130620e-06 
       5.77242527e-08       1.06776327e-06      -1.82130647e-06 
       2.22996099e-07       1.06776337e-06      -1.82130685e-06 
      -6.41238806e-08       1.30943673e-06      -2.23265103e-06 
      -2.45865778e-07       1.30943661e-06      -2.23265060e-06 
       6.33745199e-08       1.30943657e-06      -2.23265094e-06 
       2.45116417e-07       1.30943669e-06      -2.23265137e-06 
      -6.41238806e-08       1.30943673e-06      -2.23265103e-06 
      -2.45865778e-07       1.30943661e-06      -2.23265060e-06 
       6.33745199e-08       1.30943657e-06      -2.23265094e-06 
       2.45116417e-07       1.30943669e-06      -2.23265137e-06 
      -6.96941007e-08       1.57379236e-06      -2.68231856e-06 
      -2.67547607e-07       1.57379222e-06      -2.68231808e-06 
       6.88974255e-08       1.57379220e-06      -2.68231847e-06 
       2.66750932e-07       1.57379234e-06      -2.68231896e-06 
      -6.96941007e-08       1.57379236e-06      -2.68231856e-06 
      -2.67547607e-07       1.57379222e-06      -2.68231808e-06 
       6.88974255e-08       1.57379220e-06      -2.68231847e-06 
       2.66750932e-07       1.57379234e-06      -2.68231896e-06 
      -7.51323697e-08       1.86034946e-06      -3.16945211e-06 
      -2.88758709e-07       1.86034930e-06      -3.16945158e-06 
       7.42880739e-08       1.86034931e-06      -3.16945204e-06 
       2.87914413e-07       1.86034947e-06      -3.16945257e-06 
      -7.51323697e-08       1.86034946e-06      -3.16945211e-06 
      -2.88758709e-07       1.86034930e-06      -3.16945158e-06 
       7.42880739e-08       1.86034931e-06      -3.16945204e-06 
       2.87914413e-07       1.86034947e-06      -3.16945257e-06 
      -8.04386859e-08       2.16863625e-06      -3.69321196e-06 
      -3.09499081e-07       2.16863606e-06      -3.69321138e-06 
       7.95464672e-08       2.16863610e-06      -3.69321191e-06 
       3.08606862e-07       2.16863628e-06      -3.69321249e-06 
      -8.04386859e-08       2.16863625e-06      -3.69321196e-06 
      -3.09499081e-07       2.16863606e-06      -3.69321138e-06 
       7.95464672e-08       2.16863610e-06      -3.69321191e-06 
       3.08606862e-07       2.16863628e-06      -3.69321249e-06 
      -8.56130447e-08       2.49818094e-06      -4.25275838e-06 
      -3.29768718e-07       2.49818073e-06      -4.25275774e-06 
       8.46726103e-08       2.49818080e-06      -4.25275834e-06 
       3.28828284e-07       2.49818100e-06      -4.25275898e-06 
      -8.56130447e-08       2.49818094e-06      -4.25275838e-06 
      -3.29768718e-07       2.49818073e-06      -4.25275774e-06 
       8.46726103e-08       2.49818080e-06      -4.25275834e-06 
       3.28828284e-07       2.49818100e-06      -4.25275898e-06 
      -9.06554436e-08       2.84851174e-06      -4.84725164e-06 
      -3.49567619e-07       2.84851150e-06      -4.84725094e-06 
       8.96665053e-08       2.84851160e-06      -4.84725161e-06 
       3.48578681e-07       2.84851183e-06      -4.84725231e-06 
      -9.06554436e-08       2.84851174e-06      -4.84725164e-06 
      -3.49567619e-07       2.84851150e-06      -4.84725094e-06 
       8.96665053e-08       2.84851160e-06      -4.84725161e-06 
       3.48578681e-07       2.84851183e-06      -4.84725231e-06 
      -9.55658788e-08       3.21915686e-06      -5.47585200e-06 
      -3.68895778e-07       3.21915660e-06      -5.47585125e-06 
       9.45281564e-08       3.21915673e-06      -5.47585200e-06 
       3.67858056e-07       3.21915699e-06      -5.47585275e-06 
      -9.55658788e-08       3.21915686e-06      -5.47585200e-06 
      -3.68895778e-07       3.21915660e-06      -5.47585125e-06 
       9.45281564e-08       3.21915673e-06      -5.47585200e-06 
       3.67858056e-07       3.21915699e-06      -5.47585275e-06 
      -1.00344346e-07       3.60964452e-06      -6.13771974e-06 
      -3.87753193e-07       3.60964423e-06      -6.13771893e-06 
       9.92575671e-08       3.60964440e-06      -6.13771976e-06 
       3.86666414e-07       3.60964468e-06      -6.13772057e-06 
      -1.00344346e-07       3.60964452e-06      -6.13771974e-06 
      -3.87753193e-07       3.60964423e-06      -6.13771893e-06 
       9.92575671e-08       3.60964440e-06      -6.13771976e-06 
       3.86666414e-07       3.60964468e-06      -6.13772057e-06 
      -1.04990843e-07       4.01950293e-06      -6.83201514e-06 
      -4.06139860e-07       4.01950261e-06      -6.83201426e-06 
       1.03854740e-07       4.01950281e-06      -6.83201517e-06 
       4.05003758e-07       4.01950312e-06      -6.83201604e-06 
      -1.04990843e-07       4.01950293e-06      -6.83201514e-06 
      -4.06139860e-07       4.01950261e-06      -6.83201426e-06 
       1.03854740e-07       4.01950281e-06      -6.83201517e-06 
       4.05003758e-07       4.01950312e-06      -6.83201604e-06 
      -1.09505366e-07       4.44826029e-06      -7.55789845e-06 
      -4.24055776e-07       4.44825995e-06      -7.55789752e-06 
       1.08319680e-07       4.44826018e-06      -7.55789850e-06 
       4.22870091e-07       4.44826052e-06      -7.55789944e-06 
      -1.09505366e-07       4.44826029e-06      -7.55789845e-06 
      -4.24055776e-07       4.44825995e-06      -7.55789752e-06 
       1.08319680e-07       4.44826018e-06      -7.55789850e-06 
       4.22870091e-07       4.44826052e-06      -7.55789944e-06 
      -1.13887912e-07       4.89544483e-06      -8.31452995e-06 
      -4.41500938e-07       4.89544445e-06      -8.31452896e-06 
       1.12652389e-07       4.89544472e-06      -8.31453003e-06 
       4.40265416e-07       4.89544510e-06      -8.31453102e-06 
      -1.13887912e-07       4.89544483e-06      -8.31452995e-06 
      -4.41500938e-07       4.89544445e-06      -8.31452896e-06 
       1.12652389e-07       4.89544472e-06      -8.31453003e-06 
       4.40265416e-07       4.89544510e-06      -8.31453102e-06 
      -1.18139037e-07       5.36059405e-06      -9.10108922e-06 
      -4.58495871e-07       5.36059365e-06      -9.10108817e-06 
       1.16873097e-07       5.36059396e-06      -9.10108932e-06 
       4.57229930e-07       5.36059437e-06      -9.10109037e-06 
      -1.18139037e-07       5.36059405e-06      -9.10108922e-06 
      -4.58495871e-07       5.36059365e-06      -9.10108817e-06 
       1.16873097e-07       5.36059396e-06      -9.10108932e-06 
       4.57229930e-07       5.36059437e-06      -9.10109037e-06 
      -1.22277539e-07       5.84328223e-06      -9.91682840e-06 
      -4.75078965e-07       5.84328180e-06      -9.91682729e-06 
       1.20980823e-07       5.84328216e-06      -9.91682853e-06 
       4.73782247e-07       5.84328259e-06      -9.91682963e-06 
      -1.22277539e-07       5.84328223e-06      -9.91682840e-06 
      -4.75078965e-07       5.84328180e-06      -9.91682729e-06 
       1.20980823e-07       5.84328216e-06      -9.91682853e-06 
       4.73782247e-07       5.84328259e-06      -9.91682963e-06 
      -1.26303412e-07       6.34309266e-06      -1.07610166e-05 
      -4.91250216e-07       6.34309220e-06      -1.07610154e-05 
       1.24975569e-07       6.34309260e-06      -1.07610168e-05 
       4.89922373e-07       6.34309307e-06      -1.07610179e-05 
      -1.26303412e-07       6.34309266e-06      -1.07610166e-05 
      -4.91250216e-07       6.34309220e-06      -1.07610154e-05 
       1.24975569e-07       6.34309260e-06      -1.07610168e-05 
       4.89922373e-07       6.34309307e-06      -1.07610179e-05 
      -1.30216653e-07       6.85960866e-06      -1.16329230e-05 
      -5.07009621e-07       6.85960817e-06      -1.16329218e-05 
       1.28857341e-07       6.85960862e-06      -1.16329232e-05 
       5.05650308e-07       6.85960911e-06      -1.16329244e-05 
      -1.30216653e-07       6.85960866e-06      -1.16329230e-05 
      -5.07009621e-07       6.85960817e-06      -1.16329218e-05 
       1.28857341e-07       6.85960862e-06      -1.16329232e-05 
       5.05650308e-07       6.85960911e-06      -1.16329244e-05 
      -1.34017259e-07       7.39241354e-06      -1.25318166e-05 
      -5.22357175e-07       7.39241301e-06      -1.25318154e-05 
       1.32626142e-07       7.39241351e-06      -1.25318169e-05 
       5.20966060e-07       7.39241403e-06      -1.25318181e-05 
      -1.34017259e-07       7.39241354e-06      -1.25318166e-05 
      -5.22357175e-07       7.39241301e-06      -1.25318154e-05 
       1.32626142e-07       7.39241351e-06      -1.25318169e-05 
       5.20966060e-07       7.39241403e-06      -1.25318181e-05 
      -1.37705221e-07       7.94109059e-06      -1.34569667e-05 
      -5.37292874e-07       7.94109003e-06      -1.34569654e-05 
       1.36281978e-07       7.94109058e-06      -1.34569669e-05 
       5.35869630e-07       7.94109113e-06      -1.34569683e-05 
      -1.37705221e-07       7.94109059e-06      -1.34569667e-05 
      -5.37292874e-07       7.94109003e-06      -1.34569654e-05 
       1.36281978e-07       7.94109058e-06      -1.34569669e-05 
       5.35869630e-07       7.94109113e-06      -1.34569683e-05 
      -1.41280539e-07       8.50522314e-06      -1.44076423e-05 
      -5.51816713e-07       8.50522255e-06      -1.44076409e-05 
       1.39824852e-07       8.50522313e-06      -1.44076426e-05 
       5.50361027e-07       8.50522372e-06      -1.44076440e-05 
      -1.41280539e-07       8.50522314e-06      -1.44076423e-05 
      -5.51816713e-07       8.50522255e-06      -1.44076409e-05 
       1.39824852e-07       8.50522313e-06      -1.44076426e-05 
       5.50361027e-07       8.50522372e-06      -1.44076440e-05 
      -1.44743205e-07       9.08439448e-06      -1.53831125e-05 
      -5.65928687e-07       9.08439386e-06      -1.53831111e-05 
       1.43254772e-07       9.08439449e-06      -1.53831128e-05 
       5.64440254e-07       9.08439511e-06      -1.53831143e-05 
      -1.44743205e-07       9.08439448e-06      -1.53831125e-05 
      -5.65928687e-07       9.08439386e-06      -1.53831111e-05 
       1.43254772e-07       9.08439449e-06      -1.53831128e-05 
       5.64440254e-07       9.08439511e-06      -1.53831143e-05 
      -1.48093218e-07       9.67818793e-06      -1.63826465e-05 
      -5.79628793e-07       9.67818728e-06      -1.63826450e-05 
       1.46571737e-07       9.67818795e-06      -1.63826469e-05 
       5.78107312e-07       9.67818860e-06      -1.63826484e-05 
      -1.48093218e-07       9.67818793e-06      -1.63826465e-05 
      -5.79628793e-07       9.67818728e-06      -1.63826450e-05 
       1.46571737e-07       9.67818795e-06      -1.63826469e-05 
       5.78107312e-07       9.67818860e-06      -1.63826484e-05 
      -1.51330571e-07       1.02861868e-05      -1.74055135e-05 
      -5.92917026e-07       1.02861861e-05      -1.74055119e-05 
       1.49775754e-07       1.02861868e-05      -1.74055138e-05 
       5.91362210e-07       1.02861875e-05      -1.74055154e-05 
      -1.51330570e-07       1.02861868e-05      -1.74055135e-05 
      -5.92917025e-07       1.02861861e-05      -1.74055119e-05 
       1.49775755e-07       1.02861868e-05      -1.74055138e-05 
       5.91362210e-07       1.02861875e-05      -1.74055154e-05 
      -1.54458561e-07       1.09079836e-05      -1.84510009e-05 
      -6.05816457e-07       1.09079829e-05      -1.84509993e-05 
       1.52883038e-07       1.09079836e-05      -1.84510013e-05 
       6.04240934e-07       1.09079843e-05      -1.84510029e-05 
      -1.54458561e-07       1.09079836e-05      -1.84510009e-05 
      -6.05816457e-07       1.09079829e-05      -1.84509993e-05 
       1.52883038e-07       1.09079836e-05      -1.84510013e-05 
       6.04240934e-07       1.09079843e-05      -1.84510029e-05 
      -1.57492211e-07       1.15432073e-05      -1.95184671e-05 
      -6.18361686e-07       1.15432066e-05      -1.95184655e-05 
       1.55895640e-07       1.15432074e-05      -1.95184675e-05 
       6.16765115e-07       1.15432082e-05      -1.95184692e-05 
      -1.57492211e-07       1.15432073e-05      -1.95184671e-05 
      -6.18361686e-07       1.15432066e-05      -1.95184655e-05 
       1.55895640e-07       1.15432074e-05      -1.95184675e-05 
       6.16765115e-07       1.15432082e-05      -1.95184692e-05 
      -1.60431518e-07       1.21914962e-05      -2.06072869e-05 
      -6.30552708e-07       1.21914954e-05      -2.06072852e-05 
       1.58813569e-07       1.21914963e-05      -2.06072874e-05 
       6.28934758e-07       1.21914970e-05      -2.06072891e-05 
      -1.60431518e-07       1.21914962e-05      -2.06072869e-05 
      -6.30552708e-07       1.21914954e-05      -2.06072852e-05 
       1.58813569e-07       1.21914963e-05      -2.06072874e-05 
       6.28934758e-07       1.21914970e-05      -2.06072891e-05 
      -1.63276478e-07       1.28524882e-05      -2.17168352e-05 
      -6.42389518e-07       1.28524874e-05      -2.17168334e-05 
       1.61636826e-07       1.28524883e-05      -2.17168357e-05 
       6.40749867e-07       1.28524891e-05      -2.17168375e-05 
      -1.63276478e-07       1.28524882e-05      -2.17168352e-05 
      -6.42389518e-07       1.28524874e-05      -2.17168334e-05 
       1.61636826e-07       1.28524883e-05      -2.17168357e-05 
       6.40749867e-07       1.28524891e-05      -2.17168375e-05 
      -1.66027083e-07       1.35258215e-05      -2.28464869e-05 
      -6.53872113e-07       1.35258207e-05      -2.28464850e-05 
       1.64365417e-07       1.35258217e-05      -2.28464874e-05 
       6.52210447e-07       1.35258225e-05      -2.28464892e-05 
      -1.66027083e-07       1.35258215e-05      -2.28464869e-05 
      -6.53872113e-07       1.35258207e-05      -2.28464850e-05 
       1.64365417e-07       1.35258217e-05      -2.28464874e-05 
       6.52210447e-07       1.35258225e-05      -2.28464892e-05 
      -1.68683331e-07       1.42111343e-05      -2.39956167e-05 
      -6.65000486e-07       1.42111334e-05      -2.39956149e-05 
       1.66999349e-07       1.42111344e-05      -2.39956173e-05 
       6.63316503e-07       1.42111353e-05      -2.39956192e-05 
      -1.68683331e-07       1.42111343e-05      -2.39956167e-05 
      -6.65000486e-07       1.42111334e-05      -2.39956149e-05 
       1.66999349e-07       1.42111344e-05      -2.39956173e-05 
       6.63316503e-07       1.42111353e-05      -2.39956192e-05 
      -1.71245216e-07       1.49080645e-05      -2.51635998e-05 
      -6.75774633e-07       1.49080636e-05      -2.51635978e-05 
       1.69538624e-07       1.49080647e-05      -2.51636003e-05 
       6.74068040e-07       1.49080656e-05      -2.51636022e-05 
      -1.71245216e-07       1.49080645e-05      -2.51635998e-05 
      -6.75774633e-07       1.49080636e-05      -2.51635978e-05 
       1.69538624e-07       1.49080647e-05      -2.51636003e-05 
       6.74068040e-07       1.49080656e-05      -2.51636022e-05 
      -1.73712733e-07       1.56162504e-05      -2.63498107e-05 
      -6.86194547e-07       1.56162495e-05      -2.63498088e-05 
       1.71983249e-07       1.56162506e-05      -2.63498113e-05 
       6.84465063e-07       1.56162515e-05      -2.63498133e-05 
      -1.73712733e-07       1.56162504e-05      -2.63498107e-05 
      -6.86194547e-07       1.56162495e-05      -2.63498088e-05 