# vtk DataFile Version 2.0
./output/onsasExample_BladeCantileverBeamNoPitch_windVel3DDynamic 3D/onsasExample_BladeCantileverBeamNoPitch_windVel3DDynamic 3D_0059.vtk
ASCII
DATASET UNSTRUCTURED_GRID

POINTS 800 float
       2.699973e-23      -7.180703e-02      -7.180703e-02 
       1.208670e-23       7.180703e-02      -7.180703e-02 
      -2.699973e-23       7.180703e-02       7.180703e-02 
      -1.208670e-23      -7.180703e-02       7.180703e-02 
       2.000000e-01      -7.180702e-02      -7.180706e-02 
       2.000000e-01       7.180705e-02      -7.180706e-02 
       2.000000e-01       7.180705e-02       7.180701e-02 
       2.000000e-01      -7.180702e-02       7.180701e-02 
       2.000000e-01      -7.180702e-02      -7.180706e-02 
       2.000000e-01       7.180705e-02      -7.180706e-02 
       2.000000e-01       7.180705e-02       7.180701e-02 
       2.000000e-01      -7.180702e-02       7.180701e-02 
       4.000000e-01      -7.180698e-02      -7.180714e-02 
       3.999999e-01       7.180709e-02      -7.180714e-02 
       4.000000e-01       7.180709e-02       7.180693e-02 
       4.000001e-01      -7.180698e-02       7.180693e-02 
       4.000000e-01      -7.180698e-02      -7.180714e-02 
       3.999999e-01       7.180709e-02      -7.180714e-02 
       4.000000e-01       7.180709e-02       7.180693e-02 
       4.000001e-01      -7.180698e-02       7.180693e-02 
       6.000000e-01      -7.180691e-02      -7.180726e-02 
       5.999999e-01       7.180716e-02      -7.180726e-02 
       6.000000e-01       7.180716e-02       7.180680e-02 
       6.000001e-01      -7.180691e-02       7.180680e-02 
       6.000000e-01      -7.180691e-02      -7.180726e-02 
       5.999999e-01       7.180716e-02      -7.180726e-02 
       6.000000e-01       7.180716e-02       7.180680e-02 
       6.000001e-01      -7.180691e-02       7.180680e-02 
       8.000000e-01      -7.180682e-02      -7.180744e-02 
       7.999999e-01       7.180725e-02      -7.180744e-02 
       8.000000e-01       7.180725e-02       7.180663e-02 
       8.000001e-01      -7.180682e-02       7.180663e-02 
       8.000000e-01      -7.180682e-02      -7.180744e-02 
       7.999999e-01       7.180725e-02      -7.180744e-02 
       8.000000e-01       7.180725e-02       7.180663e-02 
       8.000001e-01      -7.180682e-02       7.180663e-02 
       1.000000e+00      -7.180669e-02      -7.180766e-02 
       9.999999e-01       7.180737e-02      -7.180766e-02 
       1.000000e+00       7.180737e-02       7.180641e-02 
       1.000000e+00      -7.180669e-02       7.180641e-02 
       1.000000e+00      -7.180669e-02      -7.180766e-02 
       9.999999e-01       7.180737e-02      -7.180766e-02 
       1.000000e+00       7.180737e-02       7.180641e-02 
       1.000000e+00      -7.180669e-02       7.180641e-02 
       1.200000e+00      -7.180655e-02      -7.180793e-02 
       1.200000e+00       7.180752e-02      -7.180793e-02 
       1.200000e+00       7.180752e-02       7.180614e-02 
       1.200000e+00      -7.180655e-02       7.180614e-02 
       1.200000e+00      -7.180655e-02      -7.180793e-02 
       1.200000e+00       7.180752e-02      -7.180793e-02 
       1.200000e+00       7.180752e-02       7.180614e-02 
       1.200000e+00      -7.180655e-02       7.180614e-02 
       1.400000e+00      -7.180638e-02      -7.180824e-02 
       1.400000e+00       7.180769e-02      -7.180824e-02 
       1.400000e+00       7.180769e-02       7.180582e-02 
       1.400000e+00      -7.180638e-02       7.180582e-02 
       1.400000e+00      -7.180638e-02      -7.180824e-02 
       1.400000e+00       7.180769e-02      -7.180824e-02 
       1.400000e+00       7.180769e-02       7.180582e-02 
       1.400000e+00      -7.180638e-02       7.180582e-02 
       1.600000e+00      -7.180618e-02      -7.180860e-02 
       1.600000e+00       7.180788e-02      -7.180860e-02 
       1.600000e+00       7.180788e-02       7.180546e-02 
       1.600000e+00      -7.180618e-02       7.180546e-02 
       1.600000e+00      -7.180618e-02      -7.180860e-02 
       1.600000e+00       7.180788e-02      -7.180860e-02 
       1.600000e+00       7.180788e-02       7.180546e-02 
       1.600000e+00      -7.180618e-02       7.180546e-02 
       1.800000e+00      -7.180597e-02      -7.180901e-02 
       1.800000e+00       7.180810e-02      -7.180901e-02 
       1.800000e+00       7.180810e-02       7.180506e-02 
       1.800000e+00      -7.180597e-02       7.180506e-02 
       1.800000e+00      -7.180597e-02      -7.180901e-02 
       1.800000e+00       7.180810e-02      -7.180901e-02 
       1.800000e+00       7.180810e-02       7.180506e-02 
       1.800000e+00      -7.180597e-02       7.180506e-02 
       2.000000e+00      -7.180572e-02      -7.180945e-02 
       2.000000e+00       7.180834e-02      -7.180945e-02 
       2.000000e+00       7.180834e-02       7.180461e-02 
       2.000000e+00      -7.180572e-02       7.180461e-02 
       2.000000e+00      -7.180572e-02      -7.180945e-02 
       2.000000e+00       7.180834e-02      -7.180945e-02 
       2.000000e+00       7.180834e-02       7.180461e-02 
       2.000000e+00      -7.180572e-02       7.180461e-02 
       2.200000e+00      -7.180546e-02      -7.180994e-02 
       2.200000e+00       7.180861e-02      -7.180994e-02 
       2.200000e+00       7.180861e-02       7.180412e-02 
       2.200000e+00      -7.180546e-02       7.180412e-02 
       2.200000e+00      -7.180546e-02      -7.180994e-02 
       2.200000e+00       7.180861e-02      -7.180994e-02 
       2.200000e+00       7.180861e-02       7.180412e-02 
       2.200000e+00      -7.180546e-02       7.180412e-02 
       2.400000e+00      -7.180517e-02      -7.181047e-02 
       2.400000e+00       7.180889e-02      -7.181047e-02 
       2.400000e+00       7.180889e-02       7.180359e-02 
       2.400000e+00      -7.180517e-02       7.180359e-02 
       2.400000e+00      -7.180517e-02      -7.181047e-02 
       2.400000e+00       7.180889e-02      -7.181047e-02 
       2.400000e+00       7.180889e-02       7.180359e-02 
       2.400000e+00      -7.180517e-02       7.180359e-02 
       2.600000e+00      -7.180486e-02      -7.181104e-02 
       2.600000e+00       7.180920e-02      -7.181104e-02 
       2.600000e+00       7.180920e-02       7.180302e-02 
       2.600000e+00      -7.180486e-02       7.180302e-02 
       2.600000e+00      -7.180486e-02      -7.181104e-02 
       2.600000e+00       7.180920e-02      -7.181104e-02 
       2.600000e+00       7.180920e-02       7.180302e-02 
       2.600000e+00      -7.180486e-02       7.180302e-02 
       2.800000e+00      -7.180453e-02      -7.181165e-02 
       2.800000e+00       7.180953e-02      -7.181165e-02 
       2.800000e+00       7.180953e-02       7.180242e-02 
       2.800000e+00      -7.180453e-02       7.180242e-02 
       2.800000e+00      -7.180453e-02      -7.181165e-02 
       2.800000e+00       7.180953e-02      -7.181165e-02 
       2.800000e+00       7.180953e-02       7.180242e-02 
       2.800000e+00      -7.180453e-02       7.180242e-02 
       3.000000e+00      -7.180418e-02      -7.181230e-02 
       3.000000e+00       7.180988e-02      -7.181230e-02 
       3.000000e+00       7.180988e-02       7.180177e-02 
       3.000000e+00      -7.180418e-02       7.180177e-02 
       3.000000e+00      -7.180418e-02      -7.181230e-02 
       3.000000e+00       7.180988e-02      -7.181230e-02 
       3.000000e+00       7.180988e-02       7.180177e-02 
       3.000000e+00      -7.180418e-02       7.180177e-02 
       3.200000e+00      -7.180381e-02      -7.181298e-02 
       3.200000e+00       7.181025e-02      -7.181298e-02 
       3.200000e+00       7.181025e-02       7.180109e-02 
       3.200000e+00      -7.180381e-02       7.180109e-02 
       3.200000e+00      -7.180381e-02      -7.181298e-02 
       3.200000e+00       7.181025e-02      -7.181298e-02 
       3.200000e+00       7.181025e-02       7.180109e-02 
       3.200000e+00      -7.180381e-02       7.180109e-02 
       3.400000e+00      -7.180342e-02      -7.181370e-02 
       3.400000e+00       7.181064e-02      -7.181370e-02 
       3.400000e+00       7.181064e-02       7.180037e-02 
       3.400000e+00      -7.180342e-02       7.180037e-02 
       3.400000e+00      -7.180342e-02      -7.181370e-02 
       3.400000e+00       7.181064e-02      -7.181370e-02 
       3.400000e+00       7.181064e-02       7.180037e-02 
       3.400000e+00      -7.180342e-02       7.180037e-02 
       3.600000e+00      -7.180301e-02      -7.181446e-02 
       3.600000e+00       7.181105e-02      -7.181446e-02 
       3.600000e+00       7.181105e-02       7.179961e-02 
       3.600000e+00      -7.180301e-02       7.179961e-02 
       3.600000e+00      -7.180301e-02      -7.181446e-02 
       3.600000e+00       7.181105e-02      -7.181446e-02 
       3.600000e+00       7.181105e-02       7.179961e-02 
       3.600000e+00      -7.180301e-02       7.179961e-02 
       3.800000e+00      -7.180258e-02      -7.181525e-02 
       3.800000e+00       7.181148e-02      -7.181525e-02 
       3.800000e+00       7.181148e-02       7.179882e-02 
       3.800000e+00      -7.180258e-02       7.179882e-02 
       3.800000e+00      -7.180258e-02      -7.181525e-02 
       3.800000e+00       7.181148e-02      -7.181525e-02 
       3.800000e+00       7.181148e-02       7.179882e-02 
       3.800000e+00      -7.180258e-02       7.179882e-02 
       4.000000e+00      -7.180214e-02      -7.181607e-02 
       4.000000e+00       7.181193e-02      -7.181607e-02 
       4.000000e+00       7.181193e-02       7.179800e-02 
       4.000000e+00      -7.180214e-02       7.179800e-02 
       4.000000e+00      -7.180214e-02      -7.181607e-02 
       4.000000e+00       7.181193e-02      -7.181607e-02 
       4.000000e+00       7.181193e-02       7.179800e-02 
       4.000000e+00      -7.180214e-02       7.179800e-02 
       4.200000e+00      -7.180167e-02      -7.181693e-02 
[...]
POINT_DATA       800 
VECTORS Displacements float
       2.69997251e-23      -1.38777878e-17       0.00000000e+00 
       1.20867006e-23       1.38777878e-17       1.38777878e-17 
      -2.69997251e-23       1.38777878e-17       0.00000000e+00 
      -1.20867006e-23      -1.38777878e-17      -1.38777878e-17 
      -8.50829879e-09       1.38893235e-08      -2.57236856e-08 
      -2.83920615e-08       1.38893221e-08      -2.57236568e-08 
       8.43066011e-09       1.38892984e-08      -2.57236615e-08 
       2.83144229e-08       1.38892998e-08      -2.57236903e-08 
      -8.50829879e-09       1.38893235e-08      -2.57236856e-08 
      -2.83920615e-08       1.38893221e-08      -2.57236568e-08 
       8.43066011e-09       1.38892984e-08      -2.57236615e-08 
       2.83144229e-08       1.38892998e-08      -2.57236903e-08 
      -1.68461254e-08       5.52049820e-08      -1.02225746e-07 
      -5.62342020e-08       5.52049766e-08      -1.02225683e-07 
       1.66906892e-08       5.52049341e-08      -1.02225702e-07 
       5.60787657e-08       5.52049395e-08      -1.02225764e-07 
      -1.68461254e-08       5.52049820e-08      -1.02225746e-07 
      -5.62342020e-08       5.52049766e-08      -1.02225683e-07 
       1.66906892e-08       5.52049341e-08      -1.02225702e-07 
       5.60787657e-08       5.52049395e-08      -1.02225764e-07 
      -2.50134785e-08       1.23418547e-07      -2.28502724e-07 
      -8.35264197e-08       1.23418535e-07      -2.28502623e-07 
       2.47800890e-08       1.23418478e-07      -2.28502664e-07 
       8.32930301e-08       1.23418490e-07      -2.28502765e-07 
      -2.50134785e-08       1.23418547e-07      -2.28502724e-07 
      -8.35264197e-08       1.23418535e-07      -2.28502623e-07 
       2.47800890e-08       1.23418478e-07      -2.28502664e-07 
       8.32930301e-08       1.23418490e-07      -2.28502765e-07 
      -3.30103563e-08       2.18001589e-07      -4.03551165e-07 
      -1.10268713e-07       2.18001568e-07      -4.03551021e-07 
       3.26988608e-08       2.18001502e-07      -4.03551092e-07 
       1.09957218e-07       2.18001522e-07      -4.03551236e-07 
      -3.30103563e-08       2.18001589e-07      -4.03551165e-07 
      -1.10268713e-07       2.18001568e-07      -4.03551021e-07 
       3.26988608e-08       2.18001502e-07      -4.03551092e-07 
       1.09957218e-07       2.18001522e-07      -4.03551236e-07 
      -4.08367574e-08       3.38425680e-07      -6.26367612e-07 
      -1.36461081e-07       3.38425649e-07      -6.26367421e-07 
       4.04470064e-08       3.38425576e-07      -6.26367530e-07 
       1.36071330e-07       3.38425608e-07      -6.26367721e-07 
      -4.08367574e-08       3.38425680e-07      -6.26367612e-07 
      -1.36461081e-07       3.38425649e-07      -6.26367421e-07 
       4.04470064e-08       3.38425576e-07      -6.26367530e-07 
       1.36071330e-07       3.38425608e-07      -6.26367721e-07 
      -4.84926803e-08       4.84162392e-07      -8.95948609e-07 
      -1.62103521e-07       4.84162347e-07      -8.95948368e-07 
       4.80245272e-08       4.84162272e-07      -8.95948522e-07 
       1.61635368e-07       4.84162317e-07      -8.95948762e-07 
      -4.84926803e-08       4.84162392e-07      -8.95948609e-07 
      -1.62103521e-07       4.84162347e-07      -8.95948368e-07 
       4.80245272e-08       4.84162272e-07      -8.95948522e-07 
       1.61635368e-07       4.84162317e-07      -8.95948762e-07 
      -5.59781230e-08       6.54683295e-07      -1.21129070e-06 
      -1.87196033e-07       6.54683235e-07      -1.21129041e-06 
       5.54314246e-08       6.54683161e-07      -1.21129061e-06 
       1.86649334e-07       6.54683221e-07      -1.21129090e-06 
      -5.59781230e-08       6.54683295e-07      -1.21129070e-06 
      -1.87196033e-07       6.54683235e-07      -1.21129041e-06 
       5.54314246e-08       6.54683161e-07      -1.21129061e-06 
       1.86649334e-07       6.54683221e-07      -1.21129090e-06 
      -6.32930846e-08       8.49459960e-07      -1.57139043e-06 
      -2.11738614e-07       8.49459883e-07      -1.57139008e-06 
       6.26677008e-08       8.49459815e-07      -1.57139034e-06 
       2.11113230e-07       8.49459892e-07      -1.57139069e-06 
      -6.32930846e-08       8.49459960e-07      -1.57139043e-06 
      -2.11738614e-07       8.49459883e-07      -1.57139008e-06 
       6.26677008e-08       8.49459815e-07      -1.57139034e-06 
       2.11113230e-07       8.49459892e-07      -1.57139069e-06 
      -7.04375627e-08       1.06796396e-06      -1.97524434e-06 
      -2.35731263e-07       1.06796386e-06      -1.97524393e-06 
       6.97333564e-08       1.06796380e-06      -1.97524425e-06 
       2.35027056e-07       1.06796390e-06      -1.97524467e-06 
      -7.04375627e-08       1.06796396e-06      -1.97524434e-06 
      -2.35731263e-07       1.06796386e-06      -1.97524393e-06 
       6.97333564e-08       1.06796380e-06      -1.97524425e-06 
       2.35027056e-07       1.06796390e-06      -1.97524467e-06 
      -7.74115563e-08       1.30966686e-06      -2.42184898e-06 
      -2.59173978e-07       1.30966675e-06      -2.42184850e-06 
       7.66283939e-08       1.30966670e-06      -2.42184890e-06 
       2.58390815e-07       1.30966681e-06      -2.42184937e-06 
      -7.74115565e-08       1.30966686e-06      -2.42184898e-06 
      -2.59173978e-07       1.30966675e-06      -2.42184850e-06 
       7.66283939e-08       1.30966670e-06      -2.42184890e-06 
       2.58390815e-07       1.30966681e-06      -2.42184937e-06 
      -8.42094132e-08       1.57404922e-06      -2.91021790e-06 
      -2.82080539e-07       1.57404908e-06      -2.91021737e-06 
       8.33761726e-08       1.57404906e-06      -2.91021784e-06 
       2.81247299e-07       1.57404919e-06      -2.91021836e-06 
      -8.42094132e-08       1.57404922e-06      -2.91021790e-06 
      -2.82080539e-07       1.57404908e-06      -2.91021737e-06 
       8.33761726e-08       1.57404906e-06      -2.91021784e-06 
       2.81247299e-07       1.57404919e-06      -2.91021836e-06 
      -9.08553810e-08       1.86062799e-06      -3.43943540e-06 
      -3.04494972e-07       1.86062783e-06      -3.43943482e-06 
       8.99717136e-08       1.86062783e-06      -3.43943536e-06 
       3.03611305e-07       1.86062799e-06      -3.43943594e-06 
      -9.08553810e-08       1.86062799e-06      -3.43943540e-06 
      -3.04494972e-07       1.86062783e-06      -3.43943482e-06 
       8.99717136e-08       1.86062783e-06      -3.43943536e-06 
       3.03611305e-07       1.86062799e-06      -3.43943594e-06 
      -9.73494569e-08       2.16892934e-06      -4.00860413e-06 
      -3.26417274e-07       2.16892916e-06      -4.00860349e-06 
       9.64150200e-08       2.16892919e-06      -4.00860411e-06 
       3.25482837e-07       2.16892937e-06      -4.00860476e-06 
      -9.73494569e-08       2.16892934e-06      -4.00860413e-06 
      -3.26417274e-07       2.16892916e-06      -4.00860349e-06 
       9.64150200e-08       2.16892919e-06      -4.00860411e-06 
       3.25482837e-07       2.16892937e-06      -4.00860476e-06 
      -1.03691637e-07       2.49847946e-06      -4.61682673e-06 
      -3.47847440e-07       2.49847925e-06      -4.61682603e-06 
       1.02706096e-07       2.49847931e-06      -4.61682674e-06 
       3.46861899e-07       2.49847952e-06      -4.61682744e-06 
      -1.03691637e-07       2.49847946e-06      -4.61682673e-06 
      -3.47847440e-07       2.49847925e-06      -4.61682603e-06 
       1.02706096e-07       2.49847931e-06      -4.61682674e-06 
       3.46861899e-07       2.49847952e-06      -4.61682744e-06 
      -1.09881917e-07       2.84880451e-06      -5.26320585e-06 
      -3.68785467e-07       2.84880428e-06      -5.26320508e-06 
       1.08844945e-07       2.84880438e-06      -5.26320588e-06 
       3.67748495e-07       2.84880461e-06      -5.26320664e-06 
      -1.09881917e-07       2.84880451e-06      -5.26320585e-06 
      -3.68785467e-07       2.84880428e-06      -5.26320508e-06 
       1.08844945e-07       2.84880438e-06      -5.26320588e-06 
       3.67748495e-07       2.84880461e-06      -5.26320664e-06 
      -1.15920294e-07       3.21943068e-06      -5.94684411e-06 
      -3.89231352e-07       3.21943042e-06      -5.94684328e-06 
       1.14831571e-07       3.21943055e-06      -5.94684417e-06 
       3.88142629e-07       3.21943081e-06      -5.94684499e-06 
      -1.15920294e-07       3.21943068e-06      -5.94684411e-06 
      -3.89231352e-07       3.21943042e-06      -5.94684328e-06 
       1.14831571e-07       3.21943055e-06      -5.94684417e-06 
       3.88142629e-07       3.21943081e-06      -5.94684499e-06 
      -1.21806762e-07       3.60988413e-06      -6.66684417e-06 
      -4.09185088e-07       3.60988385e-06      -6.66684328e-06 
       1.20665979e-07       3.60988401e-06      -6.66684426e-06 
       4.08044305e-07       3.60988430e-06      -6.66684515e-06 
      -1.21806762e-07       3.60988413e-06      -6.66684417e-06 
      -4.09185088e-07       3.60988385e-06      -6.66684328e-06 
       1.20665979e-07       3.60988401e-06      -6.66684426e-06 
       4.08044305e-07       3.60988430e-06      -6.66684515e-06 
      -1.27541320e-07       4.01969105e-06      -7.42230867e-06 
      -4.28646675e-07       4.01969074e-06      -7.42230771e-06 
       1.26348171e-07       4.01969094e-06      -7.42230878e-06 
       4.27453525e-07       4.01969126e-06      -7.42230974e-06 
      -1.27541320e-07       4.01969105e-06      -7.42230867e-06 
      -4.28646675e-07       4.01969074e-06      -7.42230771e-06 
       1.26348171e-07       4.01969094e-06      -7.42230878e-06 
       4.27453525e-07       4.01969126e-06      -7.42230974e-06 
      -1.33123962e-07       4.44837761e-06      -8.21234025e-06 
      -4.47616106e-07       4.44837727e-06      -8.21233922e-06 
       1.31878151e-07       4.44837751e-06      -8.21234039e-06 
       4.46370295e-07       4.44837786e-06      -8.21234142e-06 
      -1.33123962e-07       4.44837761e-06      -8.21234025e-06 
      -4.47616106e-07       4.44837727e-06      -8.21233922e-06 
       1.31878151e-07       4.44837751e-06      -8.21234039e-06 
       4.46370295e-07       4.44837786e-06      -8.21234142e-06 
      -1.38554686e-07       4.89546998e-06      -9.03604155e-06 
      -4.66093380e-07       4.89546961e-06      -9.03604046e-06 
       1.37255924e-07       4.89546989e-06      -9.03604172e-06 
       4.64794617e-07       4.89547027e-06      -9.03604282e-06 
      -1.38554686e-07       4.89546998e-06      -9.03604155e-06 
      -4.66093379e-07       4.89546961e-06      -9.03604046e-06 
       1.37255924e-07       4.89546989e-06      -9.03604172e-06 
       4.64794618e-07       4.89547027e-06      -9.03604282e-06 
      -1.43832540e-07       5.36050340e-06      -9.89253272e-06 
      -4.84097125e-07       5.36050300e-06      -9.89253157e-06 
       1.42500904e-07       5.36050333e-06      -9.89253294e-06 
       4.82765489e-07       5.36050373e-06      -9.89253409e-06 
      -1.43832540e-07       5.36050340e-06      -9.89253272e-06 
      -4.84097125e-07       5.36050300e-06      -9.89253157e-06 
       1.42500904e-07       5.36050333e-06      -9.89253294e-06 
       4.82765489e-07       5.36050373e-06      -9.89253409e-06 
      -1.48977509e-07       5.84304972e-06      -1.07810058e-05 
      -5.01667190e-07       5.84304928e-06      -1.07810046e-05 
       1.47612587e-07       5.84304966e-06      -1.07810060e-05 
       5.00302269e-07       5.84305010e-06      -1.07810072e-05 
      -1.48977509e-07       5.84304972e-06      -1.07810058e-05 
      -5.01667190e-07       5.84304928e-06      -1.07810046e-05 
       1.47612587e-07       5.84304966e-06      -1.07810060e-05 
       5.00302269e-07       5.84305010e-06      -1.07810072e-05 
      -1.53989586e-07       6.34269004e-06      -1.17006711e-05 
      -5.18803570e-07       6.34268958e-06      -1.17006698e-05 
       1.52590980e-07       6.34269001e-06      -1.17006714e-05 
       5.17404964e-07       6.34269047e-06      -1.17006727e-05 
      -1.53989586e-07       6.34269004e-06      -1.17006711e-05 
      -5.18803570e-07       6.34268958e-06      -1.17006698e-05 
       1.52590980e-07       6.34269001e-06      -1.17006714e-05 
       5.17404964e-07       6.34269047e-06      -1.17006727e-05 
      -1.58868770e-07       6.85900548e-06      -1.26507392e-05 
      -5.35506261e-07       6.85900498e-06      -1.26507378e-05 
       1.57436086e-07       6.85900546e-06      -1.26507395e-05 
       5.34073577e-07       6.85900596e-06      -1.26507408e-05 
      -1.58868770e-07       6.85900548e-06      -1.26507392e-05 
      -5.35506261e-07       6.85900498e-06      -1.26507378e-05 
       1.57436086e-07       6.85900546e-06      -1.26507395e-05 
       5.34073577e-07       6.85900596e-06      -1.26507408e-05 
      -1.63615052e-07       7.39157714e-06      -1.36304204e-05 
      -5.51775256e-07       7.39157661e-06      -1.36304189e-05 
       1.62147911e-07       7.39157714e-06      -1.36304207e-05 
       5.50308114e-07       7.39157766e-06      -1.36304221e-05 
      -1.63615052e-07       7.39157714e-06      -1.36304204e-05 
      -5.51775256e-07       7.39157661e-06      -1.36304189e-05 
       1.62147911e-07       7.39157714e-06      -1.36304207e-05 
       5.50308114e-07       7.39157766e-06      -1.36304221e-05 
      -1.68228430e-07       7.93998612e-06      -1.46389251e-05 
      -5.67610551e-07       7.93998557e-06      -1.46389236e-05 
       1.66726459e-07       7.93998614e-06      -1.46389255e-05 
       5.66108580e-07       7.93998670e-06      -1.46389270e-05 
      -1.68228430e-07       7.93998612e-06      -1.46389251e-05 
      -5.67610551e-07       7.93998557e-06      -1.46389236e-05 
       1.66726459e-07       7.93998614e-06      -1.46389255e-05 
       5.66108580e-07       7.93998670e-06      -1.46389270e-05 
      -1.72708898e-07       8.50381354e-06      -1.56754638e-05 
      -5.83012142e-07       8.50381296e-06      -1.56754622e-05 
       1.71171736e-07       8.50381358e-06      -1.56754642e-05 
       5.81474980e-07       8.50381417e-06      -1.56754657e-05 
      -1.72708898e-07       8.50381354e-06      -1.56754638e-05 
      -5.83012142e-07       8.50381296e-06      -1.56754622e-05 
       1.71171736e-07       8.50381358e-06      -1.56754642e-05 
       5.81474980e-07       8.50381417e-06      -1.56754657e-05 
      -1.77056450e-07       9.08264050e-06      -1.67392468e-05 
      -5.97980021e-07       9.08263989e-06      -1.67392452e-05 
       1.75483748e-07       9.08264056e-06      -1.67392473e-05 
       5.96407320e-07       9.08264118e-06      -1.67392489e-05 
      -1.77056450e-07       9.08264050e-06      -1.67392468e-05 
      -5.97980021e-07       9.08263989e-06      -1.67392452e-05 
       1.75483748e-07       9.08264056e-06      -1.67392473e-05 
       5.96407320e-07       9.08264118e-06      -1.67392489e-05 
      -1.81271082e-07       9.67604811e-06      -1.78294847e-05 
      -6.12514186e-07       9.67604746e-06      -1.78294830e-05 
       1.79662499e-07       9.67604819e-06      -1.78294852e-05 
       6.10905603e-07       9.67604884e-06      -1.78294869e-05 
      -1.81271082e-07       9.67604811e-06      -1.78294847e-05 
      -6.12514186e-07       9.67604746e-06      -1.78294830e-05 
       1.79662499e-07       9.67604819e-06      -1.78294852e-05 
       6.10905603e-07       9.67604884e-06      -1.78294869e-05 
      -1.85352789e-07       1.02836175e-05      -1.89453878e-05 
      -6.26614632e-07       1.02836168e-05      -1.89453860e-05 
       1.83707993e-07       1.02836176e-05      -1.89453883e-05 
       6.24969836e-07       1.02836182e-05      -1.89453901e-05 
      -1.85352789e-07       1.02836175e-05      -1.89453878e-05 
      -6.26614632e-07       1.02836168e-05      -1.89453860e-05 
       1.83707993e-07       1.02836176e-05      -1.89453883e-05 
       6.24969836e-07       1.02836182e-05      -1.89453901e-05 
      -1.89304280e-07       1.09049388e-05      -2.00861844e-05 
      -6.40303771e-07       1.09049381e-05      -2.00861826e-05 
       1.87636544e-07       1.09049389e-05      -2.00861850e-05 
       6.38636036e-07       1.09049396e-05      -2.00861868e-05 
      -1.89304280e-07       1.09049388e-05      -2.00861844e-05 
      -6.40303771e-07       1.09049381e-05      -2.00861826e-05 
       1.87636544e-07       1.09049389e-05      -2.00861850e-05 
       6.38636036e-07       1.09049396e-05      -2.00861868e-05 
      -1.93142123e-07       1.15396392e-05      -2.12511753e-05 
      -6.53618102e-07       1.15396384e-05      -2.12511735e-05 
       1.91451056e-07       1.15396393e-05      -2.12511760e-05 
       6.51927035e-07       1.15396400e-05      -2.12511778e-05 
      -1.93142123e-07       1.15396392e-05      -2.12511753e-05 
      -6.53618102e-07       1.15396384e-05      -2.12511735e-05 
       1.91451056e-07       1.15396393e-05      -2.12511760e-05 
       6.51927035e-07       1.15396400e-05      -2.12511778e-05 
      -1.96866312e-07       1.21873548e-05      -2.24396799e-05 
      -6.66557618e-07       1.21873541e-05      -2.24396780e-05 
       1.95151536e-07       1.21873550e-05      -2.24396806e-05 
       6.64842842e-07       1.21873558e-05      -2.24396825e-05 
      -1.96866312e-07       1.21873548e-05      -2.24396799e-05 
      -6.66557618e-07       1.21873541e-05      -2.24396780e-05 
       1.95151536e-07       1.21873550e-05      -2.24396806e-05 
       6.64842842e-07       1.21873558e-05      -2.24396825e-05 
      -2.00476842e-07       1.28477221e-05      -2.36510173e-05 
      -6.79122315e-07       1.28477213e-05      -2.36510154e-05 
       1.98737987e-07       1.28477223e-05      -2.36510181e-05 
       6.77383460e-07       1.28477231e-05      -2.36510200e-05 
      -2.00476842e-07       1.28477221e-05      -2.36510173e-05 
      -6.79122315e-07       1.28477213e-05      -2.36510154e-05 
       1.98737987e-07       1.28477223e-05      -2.36510181e-05 
       6.77383460e-07       1.28477231e-05      -2.36510200e-05 
      -2.03973709e-07       1.35203773e-05      -2.48845068e-05 
      -6.91312187e-07       1.35203765e-05      -2.48845048e-05 
       2.02210416e-07       1.35203775e-05      -2.48845076e-05 
       6.89548894e-07       1.35203783e-05      -2.48845096e-05 
      -2.03973709e-07       1.35203773e-05      -2.48845068e-05 
      -6.91312187e-07       1.35203765e-05      -2.48845048e-05 
       2.02210416e-07       1.35203775e-05      -2.48845076e-05 
       6.89548894e-07       1.35203783e-05      -2.48845096e-05 
      -2.07356906e-07       1.42049567e-05      -2.61394675e-05 
      -7.03127229e-07       1.42049558e-05      -2.61394654e-05 
       2.05568828e-07       1.42049569e-05      -2.61394683e-05 
       7.01339151e-07       1.42049578e-05      -2.61394704e-05 
      -2.07356906e-07       1.42049567e-05      -2.61394675e-05 
      -7.03127229e-07       1.42049558e-05      -2.61394654e-05 
       2.05568828e-07       1.42049569e-05      -2.61394683e-05 
       7.01339151e-07       1.42049578e-05      -2.61394704e-05 
      -2.10626427e-07       1.49010966e-05      -2.74152187e-05 
      -7.14567435e-07       1.49010957e-05      -2.74152166e-05 
       2.08813228e-07       1.49010968e-05      -2.74152195e-05 
       7.12754235e-07       1.49010977e-05      -2.74152217e-05 
      -2.10626427e-07       1.49010966e-05      -2.74152187e-05 
      -7.14567435e-07       1.49010957e-05      -2.74152166e-05 
       2.08813228e-07       1.49010968e-05      -2.74152195e-05 
       7.12754235e-07       1.49010977e-05      -2.74152217e-05 
      -2.13782268e-07       1.56084333e-05      -2.87110796e-05 
      -7.25632799e-07       1.56084324e-05      -2.87110774e-05 
       2.11943623e-07       1.56084336e-05      -2.87110805e-05 
       7.23794154e-07       1.56084345e-05      -2.87110826e-05 
      -2.13782268e-07       1.56084333e-05      -2.87110796e-05 
      -7.25632799e-07       1.56084324e-05      -2.87110774e-05 