# vtk DataFile Version 2.0
./output/onsasExample_BladeCantileverBeamNoPitch_windVel3DDynamic 3D/onsasExample_BladeCantileverBeamNoPitch_windVel3DDynamic 3D_0061.vtk
ASCII
DATASET UNSTRUCTURED_GRID

POINTS 800 float
       3.680608e-23      -7.180703e-02      -7.180703e-02 
       1.023004e-23       7.180703e-02      -7.180703e-02 
      -3.680608e-23       7.180703e-02       7.180703e-02 
      -1.023004e-23      -7.180703e-02       7.180703e-02 
       2.000000e-01      -7.180702e-02      -7.180706e-02 
       2.000000e-01       7.180705e-02      -7.180706e-02 
       2.000000e-01       7.180705e-02       7.180701e-02 
       2.000000e-01      -7.180702e-02       7.180701e-02 
       2.000000e-01      -7.180702e-02      -7.180706e-02 
       2.000000e-01       7.180705e-02      -7.180706e-02 
       2.000000e-01       7.180705e-02       7.180701e-02 
       2.000000e-01      -7.180702e-02       7.180701e-02 
       4.000000e-01      -7.180698e-02      -7.180713e-02 
       3.999999e-01       7.180709e-02      -7.180713e-02 
       4.000000e-01       7.180709e-02       7.180693e-02 
       4.000001e-01      -7.180698e-02       7.180693e-02 
       4.000000e-01      -7.180698e-02      -7.180713e-02 
       3.999999e-01       7.180709e-02      -7.180713e-02 
       4.000000e-01       7.180709e-02       7.180693e-02 
       4.000001e-01      -7.180698e-02       7.180693e-02 
       6.000000e-01      -7.180691e-02      -7.180726e-02 
       5.999999e-01       7.180716e-02      -7.180726e-02 
       6.000000e-01       7.180716e-02       7.180681e-02 
       6.000001e-01      -7.180691e-02       7.180681e-02 
       6.000000e-01      -7.180691e-02      -7.180726e-02 
       5.999999e-01       7.180716e-02      -7.180726e-02 
       6.000000e-01       7.180716e-02       7.180681e-02 
       6.000001e-01      -7.180691e-02       7.180681e-02 
       8.000000e-01      -7.180682e-02      -7.180743e-02 
       7.999999e-01       7.180725e-02      -7.180743e-02 
       8.000000e-01       7.180725e-02       7.180663e-02 
       8.000001e-01      -7.180682e-02       7.180663e-02 
       8.000000e-01      -7.180682e-02      -7.180743e-02 
       7.999999e-01       7.180725e-02      -7.180743e-02 
       8.000000e-01       7.180725e-02       7.180663e-02 
       8.000001e-01      -7.180682e-02       7.180663e-02 
       1.000000e+00      -7.180669e-02      -7.180765e-02 
       9.999999e-01       7.180737e-02      -7.180765e-02 
       1.000000e+00       7.180737e-02       7.180641e-02 
       1.000000e+00      -7.180669e-02       7.180641e-02 
       1.000000e+00      -7.180669e-02      -7.180765e-02 
       9.999999e-01       7.180737e-02      -7.180765e-02 
       1.000000e+00       7.180737e-02       7.180641e-02 
       1.000000e+00      -7.180669e-02       7.180641e-02 
       1.200000e+00      -7.180655e-02      -7.180792e-02 
       1.200000e+00       7.180752e-02      -7.180792e-02 
       1.200000e+00       7.180752e-02       7.180615e-02 
       1.200000e+00      -7.180655e-02       7.180615e-02 
       1.200000e+00      -7.180655e-02      -7.180792e-02 
       1.200000e+00       7.180752e-02      -7.180792e-02 
       1.200000e+00       7.180752e-02       7.180615e-02 
       1.200000e+00      -7.180655e-02       7.180615e-02 
       1.400000e+00      -7.180638e-02      -7.180823e-02 
       1.400000e+00       7.180769e-02      -7.180823e-02 
       1.400000e+00       7.180769e-02       7.180584e-02 
       1.400000e+00      -7.180638e-02       7.180584e-02 
       1.400000e+00      -7.180638e-02      -7.180823e-02 
       1.400000e+00       7.180769e-02      -7.180823e-02 
       1.400000e+00       7.180769e-02       7.180584e-02 
       1.400000e+00      -7.180638e-02       7.180584e-02 
       1.600000e+00      -7.180618e-02      -7.180859e-02 
       1.600000e+00       7.180788e-02      -7.180859e-02 
       1.600000e+00       7.180788e-02       7.180548e-02 
       1.600000e+00      -7.180618e-02       7.180548e-02 
       1.600000e+00      -7.180618e-02      -7.180859e-02 
       1.600000e+00       7.180788e-02      -7.180859e-02 
       1.600000e+00       7.180788e-02       7.180548e-02 
       1.600000e+00      -7.180618e-02       7.180548e-02 
       1.800000e+00      -7.180597e-02      -7.180898e-02 
       1.800000e+00       7.180810e-02      -7.180898e-02 
       1.800000e+00       7.180810e-02       7.180508e-02 
       1.800000e+00      -7.180597e-02       7.180508e-02 
       1.800000e+00      -7.180597e-02      -7.180898e-02 
       1.800000e+00       7.180810e-02      -7.180898e-02 
       1.800000e+00       7.180810e-02       7.180508e-02 
       1.800000e+00      -7.180597e-02       7.180508e-02 
       2.000000e+00      -7.180572e-02      -7.180943e-02 
       2.000000e+00       7.180834e-02      -7.180943e-02 
       2.000000e+00       7.180834e-02       7.180464e-02 
       2.000000e+00      -7.180572e-02       7.180464e-02 
       2.000000e+00      -7.180572e-02      -7.180943e-02 
       2.000000e+00       7.180834e-02      -7.180943e-02 
       2.000000e+00       7.180834e-02       7.180464e-02 
       2.000000e+00      -7.180572e-02       7.180464e-02 
       2.200000e+00      -7.180546e-02      -7.180991e-02 
       2.200000e+00       7.180861e-02      -7.180991e-02 
       2.200000e+00       7.180861e-02       7.180416e-02 
       2.200000e+00      -7.180546e-02       7.180416e-02 
       2.200000e+00      -7.180546e-02      -7.180991e-02 
       2.200000e+00       7.180861e-02      -7.180991e-02 
       2.200000e+00       7.180861e-02       7.180416e-02 
       2.200000e+00      -7.180546e-02       7.180416e-02 
       2.400000e+00      -7.180517e-02      -7.181043e-02 
       2.400000e+00       7.180889e-02      -7.181043e-02 
       2.400000e+00       7.180889e-02       7.180363e-02 
       2.400000e+00      -7.180517e-02       7.180363e-02 
       2.400000e+00      -7.180517e-02      -7.181043e-02 
       2.400000e+00       7.180889e-02      -7.181043e-02 
       2.400000e+00       7.180889e-02       7.180363e-02 
       2.400000e+00      -7.180517e-02       7.180363e-02 
       2.600000e+00      -7.180487e-02      -7.181099e-02 
       2.600000e+00       7.180920e-02      -7.181099e-02 
       2.600000e+00       7.180920e-02       7.180307e-02 
       2.600000e+00      -7.180487e-02       7.180307e-02 
       2.600000e+00      -7.180487e-02      -7.181099e-02 
       2.600000e+00       7.180920e-02      -7.181099e-02 
       2.600000e+00       7.180920e-02       7.180307e-02 
       2.600000e+00      -7.180487e-02       7.180307e-02 
       2.800000e+00      -7.180454e-02      -7.181159e-02 
       2.800000e+00       7.180953e-02      -7.181159e-02 
       2.800000e+00       7.180953e-02       7.180247e-02 
       2.800000e+00      -7.180454e-02       7.180247e-02 
       2.800000e+00      -7.180454e-02      -7.181159e-02 
       2.800000e+00       7.180953e-02      -7.181159e-02 
       2.800000e+00       7.180953e-02       7.180247e-02 
       2.800000e+00      -7.180454e-02       7.180247e-02 
       3.000000e+00      -7.180419e-02      -7.181223e-02 
       3.000000e+00       7.180988e-02      -7.181223e-02 
       3.000000e+00       7.180988e-02       7.180183e-02 
       3.000000e+00      -7.180419e-02       7.180183e-02 
       3.000000e+00      -7.180419e-02      -7.181223e-02 
       3.000000e+00       7.180988e-02      -7.181223e-02 
       3.000000e+00       7.180988e-02       7.180183e-02 
       3.000000e+00      -7.180419e-02       7.180183e-02 
       3.200000e+00      -7.180382e-02      -7.181291e-02 
       3.200000e+00       7.181025e-02      -7.181291e-02 
       3.200000e+00       7.181025e-02       7.180116e-02 
       3.200000e+00      -7.180382e-02       7.180116e-02 
       3.200000e+00      -7.180382e-02      -7.181291e-02 
       3.200000e+00       7.181025e-02      -7.181291e-02 
       3.200000e+00       7.181025e-02       7.180116e-02 
       3.200000e+00      -7.180382e-02       7.180116e-02 
       3.400000e+00      -7.180342e-02      -7.181362e-02 
       3.400000e+00       7.181064e-02      -7.181362e-02 
       3.400000e+00       7.181064e-02       7.180045e-02 
       3.400000e+00      -7.180342e-02       7.180045e-02 
       3.400000e+00      -7.180342e-02      -7.181362e-02 
       3.400000e+00       7.181064e-02      -7.181362e-02 
       3.400000e+00       7.181064e-02       7.180045e-02 
       3.400000e+00      -7.180342e-02       7.180045e-02 
       3.600000e+00      -7.180302e-02      -7.181436e-02 
       3.600000e+00       7.181105e-02      -7.181436e-02 
       3.600000e+00       7.181105e-02       7.179970e-02 
       3.600000e+00      -7.180302e-02       7.179970e-02 
       3.600000e+00      -7.180302e-02      -7.181436e-02 
       3.600000e+00       7.181105e-02      -7.181436e-02 
       3.600000e+00       7.181105e-02       7.179970e-02 
       3.600000e+00      -7.180302e-02       7.179970e-02 
       3.800000e+00      -7.180259e-02      -7.181514e-02 
       3.800000e+00       7.181148e-02      -7.181514e-02 
       3.800000e+00       7.181148e-02       7.179892e-02 
       3.800000e+00      -7.180259e-02       7.179892e-02 
       3.800000e+00      -7.180259e-02      -7.181514e-02 
       3.800000e+00       7.181148e-02      -7.181514e-02 
       3.800000e+00       7.181148e-02       7.179892e-02 
       3.800000e+00      -7.180259e-02       7.179892e-02 
       4.000000e+00      -7.180214e-02      -7.181596e-02 
       4.000000e+00       7.181193e-02      -7.181596e-02 
       4.000000e+00       7.181193e-02       7.179811e-02 
       4.000000e+00      -7.180214e-02       7.179811e-02 
       4.000000e+00      -7.180214e-02      -7.181596e-02 
       4.000000e+00       7.181193e-02      -7.181596e-02 
       4.000000e+00       7.181193e-02       7.179811e-02 
       4.000000e+00      -7.180214e-02       7.179811e-02 
       4.200000e+00      -7.180168e-02      -7.181680e-02 
[...]
POINT_DATA       800 
VECTORS Displacements float
       3.68060794e-23      -2.77555756e-17       1.38777878e-17 
       1.02300387e-23       0.00000000e+00       0.00000000e+00 
      -3.68060794e-23       2.77555756e-17      -1.38777878e-17 
      -1.02300387e-23       0.00000000e+00       0.00000000e+00 
      -8.30018396e-09       1.38831021e-08      -2.54273700e-08 
      -2.81750147e-08       1.38831007e-08      -2.54273420e-08 
       8.22284946e-09       1.38830777e-08      -2.54273466e-08 
       2.80976802e-08       1.38830790e-08      -2.54273747e-08 
      -8.30018396e-09       1.38831021e-08      -2.54273700e-08 
      -2.81750147e-08       1.38831007e-08      -2.54273420e-08 
       8.22284946e-09       1.38830777e-08      -2.54273466e-08 
       2.80976802e-08       1.38830790e-08      -2.54273747e-08 
      -1.64319661e-08       5.51801101e-08      -1.01044344e-07 
      -5.58021928e-08       5.51801047e-08      -1.01044283e-07 
       1.62771411e-08       5.51800635e-08      -1.01044301e-07 
       5.56473678e-08       5.51800689e-08      -1.01044362e-07 
      -1.64319661e-08       5.51801101e-08      -1.01044344e-07 
      -5.58021928e-08       5.51801047e-08      -1.01044283e-07 
       1.62771411e-08       5.51800635e-08      -1.01044301e-07 
       5.56473678e-08       5.51800689e-08      -1.01044362e-07 
      -2.43953449e-08       1.23362615e-07      -2.25853256e-07 
      -8.28815326e-08       1.23362603e-07      -2.25853157e-07 
       2.41628764e-08       1.23362548e-07      -2.25853197e-07 
       8.26490641e-08       1.23362560e-07      -2.25853296e-07 
      -2.43953449e-08       1.23362615e-07      -2.25853256e-07 
      -8.28815326e-08       1.23362603e-07      -2.25853157e-07 
       2.41628764e-08       1.23362548e-07      -2.25853197e-07 
       8.26490641e-08       1.23362560e-07      -2.25853296e-07 
      -3.21903186e-08       2.17902208e-07      -3.98856439e-07 
      -1.09413033e-07       2.17902188e-07      -3.98856299e-07 
       3.18800571e-08       2.17902123e-07      -3.98856369e-07 
       1.09102771e-07       2.17902144e-07      -3.98856509e-07 
      -3.21903186e-08       2.17902208e-07      -3.98856439e-07 
      -1.09413033e-07       2.17902188e-07      -3.98856299e-07 
       3.18800571e-08       2.17902123e-07      -3.98856369e-07 
       1.09102771e-07       2.17902144e-07      -3.98856509e-07 
      -3.98168860e-08       3.38270481e-07      -6.19056228e-07 
      -1.35396691e-07       3.38270449e-07      -6.19056042e-07 
       3.94286845e-08       3.38270379e-07      -6.19056149e-07 
       1.35008490e-07       3.38270411e-07      -6.19056335e-07 
      -3.98168860e-08       3.38270481e-07      -6.19056228e-07 
      -1.35396691e-07       3.38270449e-07      -6.19056042e-07 
       3.94286845e-08       3.38270379e-07      -6.19056149e-07 
       1.35008490e-07       3.38270411e-07      -6.19056335e-07 
      -4.72750457e-08       4.83939023e-07      -8.85454957e-07 
      -1.60832507e-07       4.83938978e-07      -8.85454722e-07 
       4.68087602e-08       4.83938907e-07      -8.85454872e-07 
       1.60366222e-07       4.83938952e-07      -8.85455107e-07 
      -4.72750457e-08       4.83939023e-07      -8.85454957e-07 
      -1.60832507e-07       4.83938978e-07      -8.85454722e-07 
       4.68087602e-08       4.83938907e-07      -8.85454872e-07 
       1.60366222e-07       4.83938952e-07      -8.85455107e-07 
      -5.45647949e-08       6.54379427e-07      -1.19705496e-06 
      -1.85720479e-07       6.54379367e-07      -1.19705467e-06 
       5.40202858e-08       6.54379297e-07      -1.19705487e-06 
       1.85175969e-07       6.54379357e-07      -1.19705516e-06 
      -5.45647949e-08       6.54379427e-07      -1.19705496e-06 
      -1.85720479e-07       6.54379367e-07      -1.19705467e-06 
       5.40202858e-08       6.54379297e-07      -1.19705487e-06 
       1.85175969e-07       6.54379357e-07      -1.19705516e-06 
      -6.16861340e-08       8.49063283e-07      -1.55285857e-06 
      -2.10060604e-07       8.49063206e-07      -1.55285822e-06 
       6.10632627e-08       8.49063141e-07      -1.55285848e-06 
       2.09437733e-07       8.49063218e-07      -1.55285882e-06 
      -6.16861340e-08       8.49063283e-07      -1.55285857e-06 
      -2.10060604e-07       8.49063206e-07      -1.55285822e-06 
       6.10632627e-08       8.49063141e-07      -1.55285848e-06 
       2.09437733e-07       8.49063218e-07      -1.55285882e-06 
      -6.86390600e-08       1.06746218e-06      -1.95186812e-06 
      -2.33852882e-07       1.06746209e-06      -1.95186772e-06 
       6.79376932e-08       1.06746203e-06      -1.95186803e-06 
       2.33151515e-07       1.06746213e-06      -1.95186844e-06 
      -6.86390600e-08       1.06746218e-06      -1.95186812e-06 
      -2.33852882e-07       1.06746209e-06      -1.95186772e-06 
       6.79376932e-08       1.06746203e-06      -1.95186803e-06 
       2.33151515e-07       1.06746213e-06      -1.95186844e-06 
      -7.54235723e-08       1.30904772e-06      -2.39308595e-06 
      -2.57097312e-07       1.30904760e-06      -2.39308548e-06 
       7.46435771e-08       1.30904755e-06      -2.39308586e-06 
       2.56317317e-07       1.30904767e-06      -2.39308633e-06 
      -7.54235721e-08       1.30904772e-06      -2.39308595e-06 
      -2.57097312e-07       1.30904760e-06      -2.39308548e-06 
       7.46435775e-08       1.30904755e-06      -2.39308586e-06 
       2.56317317e-07       1.30904767e-06      -2.39308633e-06 
      -8.20341572e-08       1.57330045e-06      -2.87553148e-06 
      -2.79807812e-07       1.57330031e-06      -2.87553096e-06 
       8.12043148e-08       1.57330029e-06      -2.87553142e-06 
       2.78977971e-07       1.57330043e-06      -2.87553194e-06 
      -8.20341572e-08       1.57330045e-06      -2.87553148e-06 
      -2.79807812e-07       1.57330031e-06      -2.87553096e-06 
       8.12043148e-08       1.57330029e-06      -2.87553142e-06 
       2.78977971e-07       1.57330043e-06      -2.87553194e-06 
      -8.84950762e-08       1.85973737e-06      -3.39829520e-06 
      -3.02028434e-07       1.85973721e-06      -3.39829463e-06 
       8.76150446e-08       1.85973722e-06      -3.39829516e-06 
       3.01148403e-07       1.85973738e-06      -3.39829573e-06 
      -8.84950762e-08       1.85973737e-06      -3.39829520e-06 
      -3.02028434e-07       1.85973721e-06      -3.39829463e-06 
       8.76150446e-08       1.85973722e-06      -3.39829516e-06 
       3.01148403e-07       1.85973738e-06      -3.39829573e-06 
      -9.48063268e-08       2.16788470e-06      -3.96048600e-06 
      -3.23759174e-07       2.16788451e-06      -3.96048537e-06 
       9.38757698e-08       2.16788455e-06      -3.96048597e-06 
       3.22828617e-07       2.16788473e-06      -3.96048660e-06 
      -9.48063268e-08       2.16788470e-06      -3.96048600e-06 
      -3.23759174e-07       2.16788451e-06      -3.96048537e-06 
       9.38757698e-08       2.16788455e-06      -3.96048597e-06 
       3.22828617e-07       2.16788473e-06      -3.96048660e-06 
      -1.00967904e-07       2.49726863e-06      -4.56121273e-06 
      -3.45000027e-07       2.49726843e-06      -4.56121205e-06 
       9.99864942e-08       2.49726850e-06      -4.56121273e-06 
       3.44018618e-07       2.49726870e-06      -4.56121342e-06 
      -1.00967904e-07       2.49726863e-06      -4.56121273e-06 
      -3.45000027e-07       2.49726843e-06      -4.56121205e-06 
       9.99864942e-08       2.49726850e-06      -4.56121273e-06 
       3.44018618e-07       2.49726870e-06      -4.56121342e-06 
      -1.06979805e-07       2.84741540e-06      -5.19958430e-06 
      -3.65750991e-07       2.84741517e-06      -5.19958355e-06 
       1.05947221e-07       2.84741527e-06      -5.19958433e-06 
       3.64718407e-07       2.84741550e-06      -5.19958507e-06 
      -1.06979805e-07       2.84741540e-06      -5.19958430e-06 
      -3.65750991e-07       2.84741517e-06      -5.19958355e-06 
       1.05947221e-07       2.84741527e-06      -5.19958433e-06 
       3.64718407e-07       2.84741550e-06      -5.19958507e-06 
      -1.12842025e-07       3.21785120e-06      -5.87470957e-06 
      -3.86012061e-07       3.21785094e-06      -5.87470876e-06 
       1.11757955e-07       3.21785108e-06      -5.87470963e-06 
       3.84927992e-07       3.21785134e-06      -5.87471044e-06 
      -1.12842025e-07       3.21785120e-06      -5.87470957e-06 
      -3.86012061e-07       3.21785094e-06      -5.87470876e-06 
       1.11757955e-07       3.21785108e-06      -5.87470963e-06 
       3.84927992e-07       3.21785134e-06      -5.87471044e-06 
      -1.18554561e-07       3.60810226e-06      -6.58569744e-06 
      -4.05783234e-07       3.60810197e-06      -6.58569656e-06 
       1.17418700e-07       3.60810214e-06      -6.58569751e-06 
       4.04647373e-07       3.60810243e-06      -6.58569839e-06 
      -1.18554561e-07       3.60810226e-06      -6.58569744e-06 
      -4.05783234e-07       3.60810197e-06      -6.58569656e-06 
       1.17418700e-07       3.60810214e-06      -6.58569751e-06 
       4.04647373e-07       3.60810243e-06      -6.58569839e-06 
      -1.24117409e-07       4.01769477e-06      -7.33165677e-06 
      -4.25064505e-07       4.01769445e-06      -7.33165583e-06 
       1.22929459e-07       4.01769466e-06      -7.33165687e-06 
       4.23876556e-07       4.01769498e-06      -7.33165781e-06 
      -1.24117409e-07       4.01769477e-06      -7.33165677e-06 
      -4.25064505e-07       4.01769445e-06      -7.33165583e-06 
       1.22929459e-07       4.01769466e-06      -7.33165687e-06 
       4.23876556e-07       4.01769498e-06      -7.33165781e-06 
      -1.29530566e-07       4.44615496e-06      -8.11169644e-06 
      -4.43855872e-07       4.44615461e-06      -8.11169544e-06 
       1.28290236e-07       4.44615486e-06      -8.11169658e-06 
       4.42615542e-07       4.44615521e-06      -8.11169758e-06 
      -1.29530566e-07       4.44615496e-06      -8.11169644e-06 
      -4.43855872e-07       4.44615461e-06      -8.11169544e-06 
       1.28290236e-07       4.44615486e-06      -8.11169658e-06 
       4.42615542e-07       4.44615521e-06      -8.11169758e-06 
      -1.34794027e-07       4.89300903e-06      -8.92492535e-06 
      -4.62157330e-07       4.89300866e-06      -8.92492428e-06 
       1.33501034e-07       4.89300895e-06      -8.92492552e-06 
       4.60864339e-07       4.89300932e-06      -8.92492659e-06 
      -1.34794027e-07       4.89300903e-06      -8.92492535e-06 
      -4.62157331e-07       4.89300866e-06      -8.92492428e-06 
       1.33501035e-07       4.89300895e-06      -8.92492552e-06 
       4.60864338e-07       4.89300932e-06      -8.92492659e-06 
      -1.39906970e-07       5.35779226e-06      -9.77046997e-06 
      -4.79987644e-07       5.35779186e-06      -9.77046884e-06 
       1.38581320e-07       5.35779219e-06      -9.77047017e-06 
       4.78661994e-07       5.35779259e-06      -9.77047130e-06 
      -1.39906970e-07       5.35779226e-06      -9.77046997e-06 
      -4.79987644e-07       5.35779186e-06      -9.77046884e-06 
       1.38581320e-07       5.35779219e-06      -9.77047017e-06 
       4.78661994e-07       5.35779259e-06      -9.77047130e-06 
      -1.44889377e-07       5.84007655e-06      -1.06475289e-05 
      -4.97386671e-07       5.84007612e-06      -1.06475277e-05 
       1.43530666e-07       5.84007650e-06      -1.06475291e-05 
       4.96027960e-07       5.84007693e-06      -1.06475303e-05 
      -1.44889377e-07       5.84007655e-06      -1.06475289e-05 
      -4.97386671e-07       5.84007612e-06      -1.06475277e-05 
       1.43530666e-07       5.84007650e-06      -1.06475291e-05 
       4.96027960e-07       5.84007693e-06      -1.06475303e-05 
      -1.49741240e-07       6.33944307e-06      -1.15553191e-05 
      -5.14354404e-07       6.33944261e-06      -1.15553179e-05 
       1.48349078e-07       6.33944304e-06      -1.15553194e-05 
       5.12962242e-07       6.33944350e-06      -1.15553207e-05 
      -1.49741240e-07       6.33944307e-06      -1.15553191e-05 
      -5.14354404e-07       6.33944261e-06      -1.15553179e-05 
       1.48349078e-07       6.33944304e-06      -1.15553194e-05 
       5.12962242e-07       6.33944350e-06      -1.15553207e-05 
      -1.54462558e-07       6.85547300e-06      -1.24930578e-05 
      -5.30890839e-07       6.85547250e-06      -1.24930564e-05 
       1.53036560e-07       6.85547298e-06      -1.24930581e-05 
       5.29464841e-07       6.85547348e-06      -1.24930594e-05 
      -1.54462558e-07       6.85547300e-06      -1.24930578e-05 
      -5.30890839e-07       6.85547250e-06      -1.24930564e-05 
       1.53036560e-07       6.85547298e-06      -1.24930581e-05 
       5.29464841e-07       6.85547348e-06      -1.24930594e-05 
      -1.59053324e-07       7.38774749e-06      -1.34599618e-05 
      -5.46995972e-07       7.38774696e-06      -1.34599604e-05 
       1.57593118e-07       7.38774749e-06      -1.34599621e-05 
       5.45535765e-07       7.38774802e-06      -1.34599635e-05 
      -1.59053324e-07       7.38774749e-06      -1.34599618e-05 
      -5.46995972e-07       7.38774696e-06      -1.34599604e-05 
       1.57593118e-07       7.38774749e-06      -1.34599621e-05 
       5.45535765e-07       7.38774802e-06      -1.34599635e-05 
      -1.63513534e-07       7.93584771e-06      -1.44552482e-05 
      -5.62669797e-07       7.93584716e-06      -1.44552468e-05 
       1.62018757e-07       7.93584774e-06      -1.44552486e-05 
       5.61175019e-07       7.93584829e-06      -1.44552500e-05 
      -1.63513534e-07       7.93584771e-06      -1.44552482e-05 
      -5.62669797e-07       7.93584716e-06      -1.44552468e-05 
       1.62018757e-07       7.93584774e-06      -1.44552486e-05 
       5.61175019e-07       7.93584829e-06      -1.44552500e-05 
      -1.67843182e-07       8.49935484e-06      -1.54781341e-05 
      -5.77912310e-07       8.49935426e-06      -1.54781326e-05 
       1.66313480e-07       8.49935488e-06      -1.54781345e-05 
       5.76382607e-07       8.49935547e-06      -1.54781360e-05 
      -1.67843182e-07       8.49935484e-06      -1.54781341e-05 
      -5.77912310e-07       8.49935426e-06      -1.54781326e-05 
       1.66313480e-07       8.49935488e-06      -1.54781345e-05 
       5.76382607e-07       8.49935547e-06      -1.54781360e-05 
      -1.72042263e-07       9.07785005e-06      -1.65278365e-05 
      -5.92723503e-07       9.07784943e-06      -1.65278349e-05 
       1.70477295e-07       9.07785010e-06      -1.65278369e-05 
       5.91158536e-07       9.07785072e-06      -1.65278385e-05 
      -1.72042263e-07       9.07785005e-06      -1.65278365e-05 
      -5.92723503e-07       9.07784943e-06      -1.65278349e-05 
       1.70477295e-07       9.07785010e-06      -1.65278369e-05 
       5.91158536e-07       9.07785072e-06      -1.65278385e-05 
      -1.76110773e-07       9.67091448e-06      -1.76035724e-05 
      -6.07103376e-07       9.67091384e-06      -1.76035707e-05 
       1.74510205e-07       9.67091456e-06      -1.76035729e-05 
       6.05502808e-07       9.67091521e-06      -1.76035745e-05 
      -1.76110773e-07       9.67091448e-06      -1.76035724e-05 
      -6.07103376e-07       9.67091384e-06      -1.76035707e-05 
       1.74510205e-07       9.67091456e-06      -1.76035729e-05 
       6.05502808e-07       9.67091521e-06      -1.76035745e-05 
      -1.80048706e-07       1.02781293e-05      -1.87045588e-05 
      -6.21051920e-07       1.02781287e-05      -1.87045571e-05 
       1.78412216e-07       1.02781294e-05      -1.87045593e-05 
       6.19415429e-07       1.02781301e-05      -1.87045610e-05 
      -1.80048706e-07       1.02781293e-05      -1.87045588e-05 
      -6.21051920e-07       1.02781287e-05      -1.87045571e-05 
       1.78412216e-07       1.02781294e-05      -1.87045593e-05 
       6.19415430e-07       1.02781301e-05      -1.87045610e-05 
      -1.83858878e-07       1.08990849e-05      -1.98300308e-05 
      -6.34591666e-07       1.08990842e-05      -1.98300291e-05 
       1.82199688e-07       1.08990850e-05      -1.98300314e-05 
       6.32932476e-07       1.08990857e-05      -1.98300331e-05 
      -1.83858878e-07       1.08990849e-05      -1.98300308e-05 
      -6.34591666e-07       1.08990842e-05      -1.98300291e-05 
       1.82199688e-07       1.08990850e-05      -1.98300314e-05 
       6.32932476e-07       1.08990857e-05      -1.98300331e-05 
      -1.87557828e-07       1.15334082e-05      -2.09792961e-05 
      -6.47759094e-07       1.15334075e-05      -2.09792943e-05 
       1.85875556e-07       1.15334084e-05      -2.09792967e-05 
       6.46076822e-07       1.15334091e-05      -2.09792985e-05 
      -1.87557828e-07       1.15334082e-05      -2.09792961e-05 
      -6.47759094e-07       1.15334075e-05      -2.09792943e-05 
       1.85875556e-07       1.15334084e-05      -2.09792967e-05 
       6.46076822e-07       1.15334091e-05      -2.09792985e-05 
      -1.91145549e-07       1.21807358e-05      -2.21516808e-05 
      -6.60554196e-07       1.21807350e-05      -2.21516789e-05 
       1.89439826e-07       1.21807359e-05      -2.21516814e-05 
       6.58848473e-07       1.21807367e-05      -2.21516833e-05 
      -1.91145549e-07       1.21807358e-05      -2.21516808e-05 
      -6.60554196e-07       1.21807350e-05      -2.21516789e-05 
       1.89439826e-07       1.21807359e-05      -2.21516814e-05 
       6.58848473e-07       1.21807367e-05      -2.21516833e-05 
      -1.94622039e-07       1.28407039e-05      -2.33465109e-05 
      -6.72976970e-07       1.28407031e-05      -2.33465090e-05 
       1.92892502e-07       1.28407041e-05      -2.33465116e-05 
       6.71247434e-07       1.28407049e-05      -2.33465135e-05 
      -1.94622039e-07       1.28407039e-05      -2.33465109e-05 
      -6.72976970e-07       1.28407031e-05      -2.33465090e-05 
       1.92892502e-07       1.28407041e-05      -2.33465116e-05 
       6.71247434e-07       1.28407049e-05      -2.33465135e-05 
      -1.97987291e-07       1.35129490e-05      -2.45631126e-05 
      -6.85027410e-07       1.35129482e-05      -2.45631106e-05 
       1.96233590e-07       1.35129492e-05      -2.45631133e-05 
       6.83273710e-07       1.35129501e-05      -2.45631153e-05 
      -1.97987291e-07       1.35129490e-05      -2.45631126e-05 
      -6.85027410e-07       1.35129482e-05      -2.45631106e-05 
       1.96233590e-07       1.35129492e-05      -2.45631133e-05 
       6.83273710e-07       1.35129501e-05      -2.45631153e-05 
      -2.01241298e-07       1.41971075e-05      -2.58008118e-05 
      -6.96705508e-07       1.41971067e-05      -2.58008098e-05 
       1.99463096e-07       1.41971077e-05      -2.58008126e-05 
       6.94927306e-07       1.41971086e-05      -2.58008146e-05 
      -2.01241298e-07       1.41971075e-05      -2.58008118e-05 
      -6.96705508e-07       1.41971067e-05      -2.58008098e-05 
       1.99463096e-07       1.41971077e-05      -2.58008126e-05 
       6.94927306e-07       1.41971086e-05      -2.58008146e-05 
      -2.04384057e-07       1.48928158e-05      -2.70589348e-05 
      -7.08011262e-07       1.48928149e-05      -2.70589327e-05 
       2.02581024e-07       1.48928160e-05      -2.70589356e-05 
       7.06208230e-07       1.48928169e-05      -2.70589376e-05 
      -2.04384057e-07       1.48928158e-05      -2.70589348e-05 
      -7.08011262e-07       1.48928149e-05      -2.70589327e-05 
       2.02581024e-07       1.48928160e-05      -2.70589356e-05 
       7.06208230e-07       1.48928169e-05      -2.70589376e-05 
      -2.07415560e-07       1.55997102e-05      -2.83368075e-05 
      -7.18944664e-07       1.55997093e-05      -2.83368053e-05 
       2.05587382e-07       1.55997105e-05      -2.83368083e-05 
       7.17116485e-07       1.55997114e-05      -2.83368104e-05 
      -2.07415560e-07       1.55997102e-05      -2.83368075e-05 
      -7.18944664e-07       1.55997093e-05      -2.83368053e-05 