# vtk DataFile Version 2.0
./output/onsasExample_BladeCantileverBeamNoPitch_windVel3DDynamic 3D/onsasExample_BladeCantileverBeamNoPitch_windVel3DDynamic 3D_0311.vtk
ASCII
DATASET UNSTRUCTURED_GRID

POINTS 800 float
       1.037839e-23      -7.180703e-02      -7.180703e-02 
       2.334384e-23       7.180703e-02      -7.180703e-02 
      -1.037839e-23       7.180703e-02       7.180703e-02 
      -2.334384e-23      -7.180703e-02       7.180703e-02 
       2.000000e-01      -7.180702e-02      -7.180706e-02 
       2.000000e-01       7.180705e-02      -7.180706e-02 
       2.000000e-01       7.180705e-02       7.180701e-02 
       2.000000e-01      -7.180702e-02       7.180701e-02 
       2.000000e-01      -7.180702e-02      -7.180706e-02 
       2.000000e-01       7.180705e-02      -7.180706e-02 
       2.000000e-01       7.180705e-02       7.180701e-02 
       2.000000e-01      -7.180702e-02       7.180701e-02 
       4.000000e-01      -7.180698e-02      -7.180713e-02 
       3.999999e-01       7.180709e-02      -7.180713e-02 
       4.000000e-01       7.180709e-02       7.180693e-02 
       4.000001e-01      -7.180698e-02       7.180693e-02 
       4.000000e-01      -7.180698e-02      -7.180713e-02 
       3.999999e-01       7.180709e-02      -7.180713e-02 
       4.000000e-01       7.180709e-02       7.180693e-02 
       4.000001e-01      -7.180698e-02       7.180693e-02 
       6.000000e-01      -7.180691e-02      -7.180726e-02 
       5.999999e-01       7.180715e-02      -7.180726e-02 
       6.000000e-01       7.180715e-02       7.180681e-02 
       6.000001e-01      -7.180691e-02       7.180681e-02 
       6.000000e-01      -7.180691e-02      -7.180726e-02 
       5.999999e-01       7.180715e-02      -7.180726e-02 
       6.000000e-01       7.180715e-02       7.180681e-02 
       6.000001e-01      -7.180691e-02       7.180681e-02 
       8.000000e-01      -7.180682e-02      -7.180743e-02 
       7.999999e-01       7.180725e-02      -7.180743e-02 
       8.000000e-01       7.180725e-02       7.180664e-02 
       8.000001e-01      -7.180682e-02       7.180664e-02 
       8.000000e-01      -7.180682e-02      -7.180743e-02 
       7.999999e-01       7.180725e-02      -7.180743e-02 
       8.000000e-01       7.180725e-02       7.180664e-02 
       8.000001e-01      -7.180682e-02       7.180664e-02 
       1.000000e+00      -7.180670e-02      -7.180765e-02 
       9.999999e-01       7.180737e-02      -7.180765e-02 
       1.000000e+00       7.180737e-02       7.180642e-02 
       1.000000e+00      -7.180670e-02       7.180642e-02 
       1.000000e+00      -7.180670e-02      -7.180765e-02 
       9.999999e-01       7.180737e-02      -7.180765e-02 
       1.000000e+00       7.180737e-02       7.180642e-02 
       1.000000e+00      -7.180670e-02       7.180642e-02 
       1.200000e+00      -7.180656e-02      -7.180791e-02 
       1.200000e+00       7.180751e-02      -7.180791e-02 
       1.200000e+00       7.180751e-02       7.180615e-02 
       1.200000e+00      -7.180656e-02       7.180615e-02 
       1.200000e+00      -7.180656e-02      -7.180791e-02 
       1.200000e+00       7.180751e-02      -7.180791e-02 
       1.200000e+00       7.180751e-02       7.180615e-02 
       1.200000e+00      -7.180656e-02       7.180615e-02 
       1.400000e+00      -7.180639e-02      -7.180822e-02 
       1.400000e+00       7.180768e-02      -7.180822e-02 
       1.400000e+00       7.180768e-02       7.180584e-02 
       1.400000e+00      -7.180639e-02       7.180584e-02 
       1.400000e+00      -7.180639e-02      -7.180822e-02 
       1.400000e+00       7.180768e-02      -7.180822e-02 
       1.400000e+00       7.180768e-02       7.180584e-02 
       1.400000e+00      -7.180639e-02       7.180584e-02 
       1.600000e+00      -7.180620e-02      -7.180858e-02 
       1.600000e+00       7.180787e-02      -7.180858e-02 
       1.600000e+00       7.180787e-02       7.180549e-02 
       1.600000e+00      -7.180620e-02       7.180549e-02 
       1.600000e+00      -7.180620e-02      -7.180858e-02 
       1.600000e+00       7.180787e-02      -7.180858e-02 
       1.600000e+00       7.180787e-02       7.180549e-02 
       1.600000e+00      -7.180620e-02       7.180549e-02 
       1.800000e+00      -7.180598e-02      -7.180898e-02 
       1.800000e+00       7.180808e-02      -7.180898e-02 
       1.800000e+00       7.180808e-02       7.180509e-02 
       1.800000e+00      -7.180598e-02       7.180509e-02 
       1.800000e+00      -7.180598e-02      -7.180898e-02 
       1.800000e+00       7.180808e-02      -7.180898e-02 
       1.800000e+00       7.180808e-02       7.180509e-02 
       1.800000e+00      -7.180598e-02       7.180509e-02 
       2.000000e+00      -7.180574e-02      -7.180942e-02 
       2.000000e+00       7.180832e-02      -7.180942e-02 
       2.000000e+00       7.180832e-02       7.180465e-02 
       2.000000e+00      -7.180574e-02       7.180465e-02 
       2.000000e+00      -7.180574e-02      -7.180942e-02 
       2.000000e+00       7.180832e-02      -7.180942e-02 
       2.000000e+00       7.180832e-02       7.180465e-02 
       2.000000e+00      -7.180574e-02       7.180465e-02 
       2.200000e+00      -7.180548e-02      -7.180990e-02 
       2.200000e+00       7.180858e-02      -7.180990e-02 
       2.200000e+00       7.180858e-02       7.180417e-02 
       2.200000e+00      -7.180548e-02       7.180417e-02 
       2.200000e+00      -7.180548e-02      -7.180990e-02 
       2.200000e+00       7.180858e-02      -7.180990e-02 
       2.200000e+00       7.180858e-02       7.180417e-02 
       2.200000e+00      -7.180548e-02       7.180417e-02 
       2.400000e+00      -7.180520e-02      -7.181042e-02 
       2.400000e+00       7.180886e-02      -7.181042e-02 
       2.400000e+00       7.180886e-02       7.180365e-02 
       2.400000e+00      -7.180520e-02       7.180365e-02 
       2.400000e+00      -7.180520e-02      -7.181042e-02 
       2.400000e+00       7.180886e-02      -7.181042e-02 
       2.400000e+00       7.180886e-02       7.180365e-02 
       2.400000e+00      -7.180520e-02       7.180365e-02 
       2.600000e+00      -7.180490e-02      -7.181098e-02 
       2.600000e+00       7.180917e-02      -7.181098e-02 
       2.600000e+00       7.180917e-02       7.180309e-02 
       2.600000e+00      -7.180490e-02       7.180309e-02 
       2.600000e+00      -7.180490e-02      -7.181098e-02 
       2.600000e+00       7.180917e-02      -7.181098e-02 
       2.600000e+00       7.180917e-02       7.180309e-02 
       2.600000e+00      -7.180490e-02       7.180309e-02 
       2.800000e+00      -7.180457e-02      -7.181157e-02 
       2.800000e+00       7.180949e-02      -7.181157e-02 
       2.800000e+00       7.180949e-02       7.180249e-02 
       2.800000e+00      -7.180457e-02       7.180249e-02 
       2.800000e+00      -7.180457e-02      -7.181157e-02 
       2.800000e+00       7.180949e-02      -7.181157e-02 
       2.800000e+00       7.180949e-02       7.180249e-02 
       2.800000e+00      -7.180457e-02       7.180249e-02 
       3.000000e+00      -7.180423e-02      -7.181221e-02 
       3.000000e+00       7.180984e-02      -7.181221e-02 
       3.000000e+00       7.180984e-02       7.180186e-02 
       3.000000e+00      -7.180423e-02       7.180186e-02 
       3.000000e+00      -7.180423e-02      -7.181221e-02 
       3.000000e+00       7.180984e-02      -7.181221e-02 
       3.000000e+00       7.180984e-02       7.180186e-02 
       3.000000e+00      -7.180423e-02       7.180186e-02 
       3.200000e+00      -7.180387e-02      -7.181288e-02 
       3.200000e+00       7.181020e-02      -7.181288e-02 
       3.200000e+00       7.181020e-02       7.180118e-02 
       3.200000e+00      -7.180387e-02       7.180118e-02 
       3.200000e+00      -7.180387e-02      -7.181288e-02 
       3.200000e+00       7.181020e-02      -7.181288e-02 
       3.200000e+00       7.181020e-02       7.180118e-02 
       3.200000e+00      -7.180387e-02       7.180118e-02 
       3.400000e+00      -7.180348e-02      -7.181359e-02 
       3.400000e+00       7.181058e-02      -7.181359e-02 
       3.400000e+00       7.181058e-02       7.180048e-02 
       3.400000e+00      -7.180348e-02       7.180048e-02 
       3.400000e+00      -7.180348e-02      -7.181359e-02 
       3.400000e+00       7.181058e-02      -7.181359e-02 
       3.400000e+00       7.181058e-02       7.180048e-02 
       3.400000e+00      -7.180348e-02       7.180048e-02 
       3.600000e+00      -7.180308e-02      -7.181433e-02 
       3.600000e+00       7.181099e-02      -7.181433e-02 
       3.600000e+00       7.181099e-02       7.179973e-02 
       3.600000e+00      -7.180308e-02       7.179973e-02 
       3.600000e+00      -7.180308e-02      -7.181433e-02 
       3.600000e+00       7.181099e-02      -7.181433e-02 
       3.600000e+00       7.181099e-02       7.179973e-02 
       3.600000e+00      -7.180308e-02       7.179973e-02 
       3.800000e+00      -7.180266e-02      -7.181511e-02 
       3.800000e+00       7.181141e-02      -7.181511e-02 
       3.800000e+00       7.181141e-02       7.179896e-02 
       3.800000e+00      -7.180266e-02       7.179896e-02 
       3.800000e+00      -7.180266e-02      -7.181511e-02 
       3.800000e+00       7.181141e-02      -7.181511e-02 
       3.800000e+00       7.181141e-02       7.179896e-02 
       3.800000e+00      -7.180266e-02       7.179896e-02 
       4.000000e+00      -7.180222e-02      -7.181592e-02 
       4.000000e+00       7.181185e-02      -7.181592e-02 
       4.000000e+00       7.181185e-02       7.179814e-02 
       4.000000e+00      -7.180222e-02       7.179814e-02 
       4.000000e+00      -7.180222e-02      -7.181592e-02 
       4.000000e+00       7.181185e-02      -7.181592e-02 
       4.000000e+00       7.181185e-02       7.179814e-02 
       4.000000e+00      -7.180222e-02       7.179814e-02 
       4.200000e+00      -7.180176e-02      -7.181676e-02 
[...]
POINT_DATA       800 
VECTORS Displacements float
       1.03783862e-23       0.00000000e+00       0.00000000e+00 
       2.33438377e-23       0.00000000e+00       0.00000000e+00 
      -1.03783862e-23       0.00000000e+00       0.00000000e+00 
      -2.33438377e-23       0.00000000e+00       0.00000000e+00 
      -8.35764280e-09       1.36817503e-08      -2.53004179e-08 
      -2.79434537e-08       1.36817490e-08      -2.53003895e-08 
       8.27336336e-09       1.36817255e-08      -2.53003940e-08 
       2.78591742e-08       1.36817268e-08      -2.53004224e-08 
      -8.35764280e-09       1.36817503e-08      -2.53004179e-08 
      -2.79434537e-08       1.36817490e-08      -2.53003895e-08 
       8.27336336e-09       1.36817255e-08      -2.53003940e-08 
       2.78591742e-08       1.36817268e-08      -2.53004224e-08 
      -1.65502559e-08       5.43755376e-08      -1.00543633e-07 
      -5.53433421e-08       5.43755324e-08      -1.00543572e-07 
       1.63815433e-08       5.43754901e-08      -1.00543590e-07 
       5.51746294e-08       5.43754953e-08      -1.00543651e-07 
      -1.65502559e-08       5.43755376e-08      -1.00543633e-07 
      -5.53433421e-08       5.43755324e-08      -1.00543572e-07 
       1.63815433e-08       5.43754901e-08      -1.00543590e-07 
       5.51746294e-08       5.43754953e-08      -1.00543651e-07 
      -2.45778379e-08       1.21554205e-07      -2.24742628e-07 
      -8.21996637e-08       1.21554194e-07      -2.24742529e-07 
       2.43245410e-08       1.21554137e-07      -2.24742568e-07 
       8.19463669e-08       1.21554149e-07      -2.24742668e-07 
      -2.45778379e-08       1.21554205e-07      -2.24742628e-07 
      -8.21996637e-08       1.21554194e-07      -2.24742529e-07 
       2.43245410e-08       1.21554137e-07      -2.24742568e-07 
       8.19463669e-08       1.21554149e-07      -2.24742668e-07 
      -3.24403873e-08       2.14690596e-07      -3.96910384e-07 
      -1.08512417e-07       2.14690576e-07      -3.96910243e-07 
       3.21023589e-08       2.14690509e-07      -3.96910311e-07 
       1.08174389e-07       2.14690529e-07      -3.96910453e-07 
      -3.24403873e-08       2.14690596e-07      -3.96910384e-07 
      -1.08512417e-07       2.14690576e-07      -3.96910243e-07 
       3.21023589e-08       2.14690509e-07      -3.96910311e-07 
       1.08174389e-07       2.14690529e-07      -3.96910453e-07 
      -4.01379023e-08       3.33257554e-07      -6.16059882e-07 
      -1.34281601e-07       3.33257523e-07      -6.16059695e-07 
       3.97149973e-08       3.33257450e-07      -6.16059800e-07 
       1.33858695e-07       3.33257481e-07      -6.16059987e-07 
      -4.01379023e-08       3.33257554e-07      -6.16059882e-07 
      -1.34281601e-07       3.33257523e-07      -6.16059695e-07 
       3.97149973e-08       3.33257450e-07      -6.16059800e-07 
       1.33858695e-07       3.33257481e-07      -6.16059987e-07 
      -4.76703819e-08       4.76727922e-07      -8.81204104e-07 
      -1.59507213e-07       4.76727878e-07      -8.81203867e-07 
       4.71624588e-08       4.76727803e-07      -8.81204016e-07 
       1.58999290e-07       4.76727847e-07      -8.81204252e-07 
      -4.76703819e-08       4.76727922e-07      -8.81204104e-07 
      -1.59507213e-07       4.76727878e-07      -8.81203867e-07 
       4.71624588e-08       4.76727803e-07      -8.81204016e-07 
       1.58999290e-07       4.76727847e-07      -8.81204252e-07 
      -5.50378241e-08       6.44574543e-07      -1.19135603e-06 
      -1.84189252e-07       6.44574485e-07      -1.19135574e-06 
       5.44447443e-08       6.44574411e-07      -1.19135594e-06 
       1.83596172e-07       6.44574469e-07      -1.19135623e-06 
      -5.50378241e-08       6.44574543e-07      -1.19135603e-06 
      -1.84189252e-07       6.44574485e-07      -1.19135574e-06 
       5.44447443e-08       6.44574411e-07      -1.19135594e-06 
       1.83596172e-07       6.44574469e-07      -1.19135623e-06 
      -6.22402272e-08       8.36270261e-07      -1.54552865e-06 
      -2.08327717e-07       8.36270187e-07      -1.54552830e-06 
       6.15618554e-08       8.36270117e-07      -1.54552855e-06 
       2.07649345e-07       8.36270191e-07      -1.54552890e-06 
      -6.22402272e-08       8.36270261e-07      -1.54552865e-06 
      -2.08327717e-07       8.36270187e-07      -1.54552830e-06 
       6.15618554e-08       8.36270117e-07      -1.54552855e-06 
       2.07649345e-07       8.36270191e-07      -1.54552890e-06 
      -6.92775903e-08       1.05128792e-06      -1.94273493e-06 
      -2.31922606e-07       1.05128783e-06      -1.94273453e-06 
       6.85137935e-08       1.05128776e-06      -1.94273484e-06 
       2.31158809e-07       1.05128786e-06      -1.94273524e-06 
      -6.92775903e-08       1.05128792e-06      -1.94273493e-06 
      -2.31922606e-07       1.05128783e-06      -1.94273453e-06 
       6.85137935e-08       1.05128776e-06      -1.94273484e-06 
       2.31158809e-07       1.05128786e-06      -1.94273524e-06 
      -7.61499119e-08       1.28910036e-06      -2.38198786e-06 
      -2.54973918e-07       1.28910025e-06      -2.38198740e-06 
       7.53005605e-08       1.28910020e-06      -2.38198778e-06 
       2.54124566e-07       1.28910031e-06      -2.38198824e-06 
      -7.61499119e-08       1.28910036e-06      -2.38198786e-06 
      -2.54973917e-07       1.28910025e-06      -2.38198740e-06 
       7.53005609e-08       1.28910020e-06      -2.38198778e-06 
       2.54124566e-07       1.28910031e-06      -2.38198824e-06 
      -8.28524618e-08       1.54918957e-06      -2.86231823e-06 
      -2.77496781e-07       1.54918944e-06      -2.86231771e-06 
       8.19458030e-08       1.54918941e-06      -2.86231816e-06 
       2.76590122e-07       1.54918954e-06      -2.86231868e-06 
      -8.28524618e-08       1.54918957e-06      -2.86231823e-06 
      -2.77496781e-07       1.54918944e-06      -2.86231771e-06 
       8.19458030e-08       1.54918941e-06      -2.86231816e-06 
       2.76590122e-07       1.54918954e-06      -2.86231868e-06 
      -8.94095198e-08       1.83107500e-06      -3.38283039e-06 
      -2.99535976e-07       1.83107485e-06      -3.38282982e-06 
       8.84452160e-08       1.83107484e-06      -3.38283034e-06 
       2.98571672e-07       1.83107500e-06      -3.38283091e-06 
      -8.94095198e-08       1.83107500e-06      -3.38283039e-06 
      -2.99535976e-07       1.83107485e-06      -3.38282982e-06 
       8.84452160e-08       1.83107484e-06      -3.38283034e-06 
       2.98571672e-07       1.83107500e-06      -3.38283091e-06 
      -9.58210831e-08       2.13428571e-06      -3.94264769e-06 
      -3.21091497e-07       2.13428554e-06      -3.94264706e-06 
       9.47988030e-08       2.13428556e-06      -3.94264766e-06 
       3.20069217e-07       2.13428574e-06      -3.94264829e-06 
      -9.58210831e-08       2.13428571e-06      -3.94264769e-06 
      -3.21091497e-07       2.13428554e-06      -3.94264706e-06 
       9.47988030e-08       2.13428556e-06      -3.94264766e-06 
       3.20069217e-07       2.13428574e-06      -3.94264829e-06 
      -1.02087148e-07       2.45835074e-06      -4.54089348e-06 
      -3.42163342e-07       2.45835054e-06      -4.54089280e-06 
       1.01006568e-07       2.45835059e-06      -4.54089348e-06 
       3.41082762e-07       2.45835080e-06      -4.54089417e-06 
      -1.02087148e-07       2.45835074e-06      -4.54089348e-06 
      -3.42163342e-07       2.45835054e-06      -4.54089280e-06 
       1.01006568e-07       2.45835059e-06      -4.54089348e-06 
       3.41082762e-07       2.45835080e-06      -4.54089417e-06 
      -1.08207711e-07       2.80279914e-06      -5.17669112e-06 
      -3.62751507e-07       2.80279891e-06      -5.17669037e-06 
       1.07068515e-07       2.80279900e-06      -5.17669114e-06 
       3.61612311e-07       2.80279922e-06      -5.17669188e-06 
      -1.08207711e-07       2.80279914e-06      -5.17669112e-06 
      -3.62751507e-07       2.80279891e-06      -5.17669037e-06 
       1.07068515e-07       2.80279900e-06      -5.17669114e-06 
       3.61612311e-07       2.80279922e-06      -5.17669188e-06 
      -1.14182768e-07       3.16715995e-06      -5.84916393e-06 
      -3.82855988e-07       3.16715970e-06      -5.84916312e-06 
       1.12984647e-07       3.16715981e-06      -5.84916398e-06 
       3.81657866e-07       3.16716007e-06      -5.84916479e-06 
      -1.14182768e-07       3.16715995e-06      -5.84916393e-06 
      -3.82855988e-07       3.16715970e-06      -5.84916312e-06 
       1.12984647e-07       3.16715981e-06      -5.84916398e-06 
       3.81657866e-07       3.16716007e-06      -5.84916479e-06 
      -1.20012315e-07       3.55096221e-06      -6.55743528e-06 
      -4.02476781e-07       3.55096194e-06      -6.55743441e-06 
       1.18754968e-07       3.55096209e-06      -6.55743535e-06 
       4.01219433e-07       3.55096237e-06      -6.55743622e-06 
      -1.20012315e-07       3.55096221e-06      -6.55743528e-06 
      -4.02476781e-07       3.55096194e-06      -6.55743441e-06 
       1.18754968e-07       3.55096209e-06      -6.55743535e-06 
       4.01219433e-07       3.55096237e-06      -6.55743622e-06 
      -1.25696350e-07       3.95373499e-06      -7.30062850e-06 
      -4.21613883e-07       3.95373468e-06      -7.30062757e-06 
       1.24379481e-07       3.95373487e-06      -7.30062860e-06 
       4.20297015e-07       3.95373518e-06      -7.30062954e-06 
      -1.25696350e-07       3.95373499e-06      -7.30062850e-06 
      -4.21613883e-07       3.95373468e-06      -7.30062757e-06 
       1.24379481e-07       3.95373487e-06      -7.30062860e-06 
       4.20297015e-07       3.95373518e-06      -7.30062954e-06 
      -1.31234867e-07       4.37500731e-06      -8.07786695e-06 
      -4.40267290e-07       4.37500698e-06      -8.07786595e-06 
       1.29858192e-07       4.37500720e-06      -8.07786708e-06 
       4.38890615e-07       4.37500753e-06      -8.07786808e-06 
      -1.31234867e-07       4.37500731e-06      -8.07786695e-06 
      -4.40267290e-07       4.37500698e-06      -8.07786595e-06 
       1.29858192e-07       4.37500720e-06      -8.07786708e-06 
       4.38890615e-07       4.37500753e-06      -8.07786808e-06 
      -1.36627863e-07       4.81430823e-06      -8.88827397e-06 
      -4.58436999e-07       4.81430787e-06      -8.88827291e-06 
       1.35191101e-07       4.81430813e-06      -8.88827413e-06 
       4.57000237e-07       4.81430849e-06      -8.88827520e-06 
      -1.36627863e-07       4.81430823e-06      -8.88827397e-06 
      -4.58436998e-07       4.81430787e-06      -8.88827291e-06 
       1.35191102e-07       4.81430813e-06      -8.88827413e-06 
       4.57000237e-07       4.81430849e-06      -8.88827520e-06 
      -1.41875415e-07       5.27117623e-06      -9.73099188e-06 
      -4.76143394e-07       5.27117584e-06      -9.73099075e-06 
       1.40398238e-07       5.27117615e-06      -9.73099208e-06 
       4.74666217e-07       5.27117654e-06      -9.73099320e-06 
      -1.41875415e-07       5.27117623e-06      -9.73099188e-06 
      -4.76143394e-07       5.27117584e-06      -9.73099075e-06 
       1.40398238e-07       5.27117615e-06      -9.73099208e-06 
       4.74666217e-07       5.27117654e-06      -9.73099320e-06 
      -1.46996752e-07       5.74518742e-06      -1.06052364e-05 
      -4.93425922e-07       5.74518700e-06      -1.06052352e-05 
       1.45478761e-07       5.74518736e-06      -1.06052366e-05 
       4.91907931e-07       5.74518777e-06      -1.06052378e-05 
      -1.46996752e-07       5.74518742e-06      -1.06052364e-05 
      -4.93425922e-07       5.74518700e-06      -1.06052352e-05 
       1.45478761e-07       5.74518736e-06      -1.06052366e-05 
       4.91907931e-07       5.74518777e-06      -1.06052378e-05 
      -1.51991868e-07       6.23592728e-06      -1.15102408e-05 
      -5.10284577e-07       6.23592684e-06      -1.15102395e-05 
       1.50432677e-07       6.23592724e-06      -1.15102411e-05 
       5.08725386e-07       6.23592769e-06      -1.15102423e-05 
      -1.51991868e-07       6.23592728e-06      -1.15102408e-05 
      -5.10284577e-07       6.23592684e-06      -1.15102395e-05 
       1.50432677e-07       6.23592724e-06      -1.15102411e-05 
       5.08725386e-07       6.23592769e-06      -1.15102423e-05 
      -1.56860760e-07       6.74298131e-06      -1.24452386e-05 
      -5.26719357e-07       6.74298083e-06      -1.24452372e-05 
       1.55259989e-07       6.74298128e-06      -1.24452389e-05 
       5.25118585e-07       6.74298176e-06      -1.24452402e-05 
      -1.56860760e-07       6.74298131e-06      -1.24452386e-05 
      -5.26719357e-07       6.74298083e-06      -1.24452372e-05 
       1.55259989e-07       6.74298128e-06      -1.24452389e-05 
       5.25118585e-07       6.74298176e-06      -1.24452402e-05 
      -1.61603423e-07       7.26593497e-06      -1.34094631e-05 
      -5.42730255e-07       7.26593447e-06      -1.34094617e-05 
       1.59960701e-07       7.26593496e-06      -1.34094634e-05 
       5.41087532e-07       7.26593547e-06      -1.34094648e-05 
      -1.61603423e-07       7.26593497e-06      -1.34094631e-05 
      -5.42730255e-07       7.26593447e-06      -1.34094617e-05 
       1.59960701e-07       7.26593496e-06      -1.34094634e-05 
       5.41087532e-07       7.26593547e-06      -1.34094648e-05 
      -1.66219851e-07       7.80437377e-06      -1.44021477e-05 
      -5.58317265e-07       7.80437323e-06      -1.44021463e-05 
       1.64534820e-07       7.80437377e-06      -1.44021481e-05 
       5.56632234e-07       7.80437431e-06      -1.44021495e-05 
      -1.66219851e-07       7.80437377e-06      -1.44021477e-05 
      -5.58317265e-07       7.80437323e-06      -1.44021463e-05 
       1.64534820e-07       7.80437377e-06      -1.44021481e-05 
       5.56632234e-07       7.80437431e-06      -1.44021495e-05 
      -1.70710040e-07       8.35788316e-06      -1.54225258e-05 
      -5.73480385e-07       8.35788260e-06      -1.54225243e-05 
       1.68982349e-07       8.35788319e-06      -1.54225263e-05 
       5.71752694e-07       8.35788375e-06      -1.54225277e-05 
      -1.70710040e-07       8.35788316e-06      -1.54225258e-05 
      -5.73480385e-07       8.35788260e-06      -1.54225243e-05 
       1.68982349e-07       8.35788319e-06      -1.54225263e-05 
       5.71752694e-07       8.35788375e-06      -1.54225277e-05 
      -1.75073984e-07       8.92604866e-06      -1.64698309e-05 
      -5.88219607e-07       8.92604806e-06      -1.64698293e-05 
       1.73303295e-07       8.92604870e-06      -1.64698313e-05 
       5.86448919e-07       8.92604929e-06      -1.64698329e-05 
      -1.75073984e-07       8.92604866e-06      -1.64698309e-05 
      -5.88219607e-07       8.92604806e-06      -1.64698293e-05 
       1.73303295e-07       8.92604870e-06      -1.64698313e-05 
       5.86448919e-07       8.92604929e-06      -1.64698329e-05 
      -1.79311679e-07       9.50845572e-06      -1.75432962e-05 
      -6.02534930e-07       9.50845510e-06      -1.75432946e-05 
       1.77497661e-07       9.50845578e-06      -1.75432967e-05 
       6.00720911e-07       9.50845641e-06      -1.75432983e-05 
      -1.79311679e-07       9.50845572e-06      -1.75432962e-05 
      -6.02534930e-07       9.50845510e-06      -1.75432946e-05 
       1.77497661e-07       9.50845578e-06      -1.75432967e-05 
       6.00720911e-07       9.50845641e-06      -1.75432983e-05 
      -1.83423121e-07       1.01046898e-05      -1.86421552e-05 
      -6.16426346e-07       1.01046892e-05      -1.86421535e-05 
       1.81565452e-07       1.01046899e-05      -1.86421558e-05 
       6.14568677e-07       1.01046906e-05      -1.86421574e-05 
      -1.83423121e-07       1.01046898e-05      -1.86421552e-05 
      -6.16426346e-07       1.01046892e-05      -1.86421535e-05 
       1.81565452e-07       1.01046899e-05      -1.86421558e-05 
       6.14568676e-07       1.01046906e-05      -1.86421574e-05 
      -1.87411394e-07       1.07143460e-05      -1.97656602e-05 
      -6.29917293e-07       1.07143453e-05      -1.97656585e-05 
       1.85523253e-07       1.07143461e-05      -1.97656608e-05 
       6.28029151e-07       1.07143468e-05      -1.97656625e-05 
      -1.87411394e-07       1.07143460e-05      -1.97656602e-05 
      -6.29917293e-07       1.07143453e-05      -1.97656585e-05 
       1.85523253e-07       1.07143461e-05      -1.97656608e-05 
       6.28029151e-07       1.07143468e-05      -1.97656625e-05 
      -1.91291850e-07       1.13370566e-05      -2.09131351e-05 
      -6.43043100e-07       1.13370559e-05      -2.09131333e-05 
       1.89372856e-07       1.13370567e-05      -2.09131357e-05 
       6.41124107e-07       1.13370574e-05      -2.09131375e-05 
      -1.91291850e-07       1.13370566e-05      -2.09131351e-05 
      -6.43043100e-07       1.13370559e-05      -2.09131333e-05 
       1.89372856e-07       1.13370567e-05      -2.09131357e-05 
       6.41124107e-07       1.13370574e-05      -2.09131375e-05 
      -1.95064482e-07       1.19724633e-05      -2.20839207e-05 
      -6.55803759e-07       1.19724626e-05      -2.20839189e-05 
       1.93114269e-07       1.19724635e-05      -2.20839214e-05 
       6.53853546e-07       1.19724642e-05      -2.20839232e-05 
      -1.95064482e-07       1.19724633e-05      -2.20839207e-05 
      -6.55803759e-07       1.19724626e-05      -2.20839189e-05 
       1.93114269e-07       1.19724635e-05      -2.20839214e-05 
       6.53853546e-07       1.19724642e-05      -2.20839232e-05 
      -1.98729286e-07       1.26202078e-05      -2.32773579e-05 
      -6.68199267e-07       1.26202070e-05      -2.32773560e-05 
       1.96747493e-07       1.26202079e-05      -2.32773586e-05 
       6.66217474e-07       1.26202087e-05      -2.32773605e-05 
      -1.98729286e-07       1.26202078e-05      -2.32773579e-05 
      -6.68199267e-07       1.26202070e-05      -2.32773560e-05 
       1.96747493e-07       1.26202079e-05      -2.32773586e-05 
       6.66217474e-07       1.26202087e-05      -2.32773605e-05 
      -2.02286258e-07       1.32799316e-05      -2.44927874e-05 
      -6.80229619e-07       1.32799308e-05      -2.44927855e-05 
       2.00272535e-07       1.32799318e-05      -2.44927882e-05 
       6.78215897e-07       1.32799326e-05      -2.44927901e-05 
      -2.02286258e-07       1.32799316e-05      -2.44927874e-05 
      -6.80229619e-07       1.32799308e-05      -2.44927855e-05 
       2.00272535e-07       1.32799318e-05      -2.44927882e-05 
       6.78215897e-07       1.32799326e-05      -2.44927901e-05 
      -2.05735391e-07       1.39512764e-05      -2.57295502e-05 
      -6.91894809e-07       1.39512756e-05      -2.57295481e-05 
       2.03689401e-07       1.39512766e-05      -2.57295509e-05 
       6.89848819e-07       1.39512775e-05      -2.57295529e-05 
      -2.05735391e-07       1.39512764e-05      -2.57295502e-05 
      -6.91894809e-07       1.39512756e-05      -2.57295481e-05 
       2.03689401e-07       1.39512766e-05      -2.57295509e-05 
       6.89848819e-07       1.39512775e-05      -2.57295529e-05 
      -2.09076681e-07       1.46338840e-05      -2.69869869e-05 
      -7.03194832e-07       1.46338831e-05      -2.69869848e-05 
       2.06998096e-07       1.46338842e-05      -2.69869877e-05 
       7.01116246e-07       1.46338851e-05      -2.69869898e-05 
      -2.09076681e-07       1.46338840e-05      -2.69869869e-05 
      -7.03194832e-07       1.46338831e-05      -2.69869848e-05 
       2.06998096e-07       1.46338842e-05      -2.69869877e-05 
       7.01116246e-07       1.46338851e-05      -2.69869898e-05 
      -2.12310121e-07       1.53273958e-05      -2.82644384e-05 
      -7.14129681e-07       1.53273950e-05      -2.82644363e-05 
       2.10198626e-07       1.53273961e-05      -2.82644393e-05 
       7.12018186e-07       1.53273970e-05      -2.82644414e-05 
      -2.12310121e-07       1.53273958e-05      -2.82644384e-05 
      -7.14129681e-07       1.53273950e-05      -2.82644363e-05 