# vtk DataFile Version 2.0
./output/onsasExample_BladeCantileverBeamNoPitch_windVel3DDynamic 3D/onsasExample_BladeCantileverBeamNoPitch_windVel3DDynamic 3D_0342.vtk
ASCII
DATASET UNSTRUCTURED_GRID

POINTS 800 float
       5.767653e-24      -7.180703e-02      -7.180703e-02 
       1.651080e-23       7.180703e-02      -7.180703e-02 
      -5.767653e-24       7.180703e-02       7.180703e-02 
      -1.651080e-23      -7.180703e-02       7.180703e-02 
       2.000000e-01      -7.180702e-02      -7.180706e-02 
       2.000000e-01       7.180705e-02      -7.180706e-02 
       2.000000e-01       7.180705e-02       7.180701e-02 
       2.000000e-01      -7.180702e-02       7.180701e-02 
       2.000000e-01      -7.180702e-02      -7.180706e-02 
       2.000000e-01       7.180705e-02      -7.180706e-02 
       2.000000e-01       7.180705e-02       7.180701e-02 
       2.000000e-01      -7.180702e-02       7.180701e-02 
       4.000000e-01      -7.180698e-02      -7.180713e-02 
       3.999999e-01       7.180709e-02      -7.180713e-02 
       4.000000e-01       7.180709e-02       7.180694e-02 
       4.000001e-01      -7.180698e-02       7.180694e-02 
       4.000000e-01      -7.180698e-02      -7.180713e-02 
       3.999999e-01       7.180709e-02      -7.180713e-02 
       4.000000e-01       7.180709e-02       7.180694e-02 
       4.000001e-01      -7.180698e-02       7.180694e-02 
       6.000000e-01      -7.180691e-02      -7.180725e-02 
       5.999999e-01       7.180715e-02      -7.180725e-02 
       6.000000e-01       7.180715e-02       7.180682e-02 
       6.000001e-01      -7.180691e-02       7.180682e-02 
       6.000000e-01      -7.180691e-02      -7.180725e-02 
       5.999999e-01       7.180715e-02      -7.180725e-02 
       6.000000e-01       7.180715e-02       7.180682e-02 
       6.000001e-01      -7.180691e-02       7.180682e-02 
       8.000000e-01      -7.180682e-02      -7.180741e-02 
       7.999999e-01       7.180725e-02      -7.180741e-02 
       8.000000e-01       7.180725e-02       7.180666e-02 
       8.000001e-01      -7.180682e-02       7.180666e-02 
       8.000000e-01      -7.180682e-02      -7.180741e-02 
       7.999999e-01       7.180725e-02      -7.180741e-02 
       8.000000e-01       7.180725e-02       7.180666e-02 
       8.000001e-01      -7.180682e-02       7.180666e-02 
       1.000000e+00      -7.180670e-02      -7.180762e-02 
       9.999999e-01       7.180737e-02      -7.180762e-02 
       1.000000e+00       7.180737e-02       7.180645e-02 
       1.000000e+00      -7.180670e-02       7.180645e-02 
       1.000000e+00      -7.180670e-02      -7.180762e-02 
       9.999999e-01       7.180737e-02      -7.180762e-02 
       1.000000e+00       7.180737e-02       7.180645e-02 
       1.000000e+00      -7.180670e-02       7.180645e-02 
       1.200000e+00      -7.180656e-02      -7.180787e-02 
       1.200000e+00       7.180751e-02      -7.180787e-02 
       1.200000e+00       7.180751e-02       7.180620e-02 
       1.200000e+00      -7.180656e-02       7.180620e-02 
       1.200000e+00      -7.180656e-02      -7.180787e-02 
       1.200000e+00       7.180751e-02      -7.180787e-02 
       1.200000e+00       7.180751e-02       7.180620e-02 
       1.200000e+00      -7.180656e-02       7.180620e-02 
       1.400000e+00      -7.180639e-02      -7.180816e-02 
       1.400000e+00       7.180768e-02      -7.180816e-02 
       1.400000e+00       7.180768e-02       7.180591e-02 
       1.400000e+00      -7.180639e-02       7.180591e-02 
       1.400000e+00      -7.180639e-02      -7.180816e-02 
       1.400000e+00       7.180768e-02      -7.180816e-02 
       1.400000e+00       7.180768e-02       7.180591e-02 
       1.400000e+00      -7.180639e-02       7.180591e-02 
       1.600000e+00      -7.180620e-02      -7.180849e-02 
       1.600000e+00       7.180787e-02      -7.180849e-02 
       1.600000e+00       7.180787e-02       7.180557e-02 
       1.600000e+00      -7.180620e-02       7.180557e-02 
       1.600000e+00      -7.180620e-02      -7.180849e-02 
       1.600000e+00       7.180787e-02      -7.180849e-02 
       1.600000e+00       7.180787e-02       7.180557e-02 
       1.600000e+00      -7.180620e-02       7.180557e-02 
       1.800000e+00      -7.180598e-02      -7.180887e-02 
       1.800000e+00       7.180809e-02      -7.180887e-02 
       1.800000e+00       7.180809e-02       7.180520e-02 
       1.800000e+00      -7.180598e-02       7.180520e-02 
       1.800000e+00      -7.180598e-02      -7.180887e-02 
       1.800000e+00       7.180809e-02      -7.180887e-02 
       1.800000e+00       7.180809e-02       7.180520e-02 
       1.800000e+00      -7.180598e-02       7.180520e-02 
       2.000000e+00      -7.180574e-02      -7.180928e-02 
       2.000000e+00       7.180832e-02      -7.180928e-02 
       2.000000e+00       7.180832e-02       7.180479e-02 
       2.000000e+00      -7.180574e-02       7.180479e-02 
       2.000000e+00      -7.180574e-02      -7.180928e-02 
       2.000000e+00       7.180832e-02      -7.180928e-02 
       2.000000e+00       7.180832e-02       7.180479e-02 
       2.000000e+00      -7.180574e-02       7.180479e-02 
       2.200000e+00      -7.180548e-02      -7.180973e-02 
       2.200000e+00       7.180859e-02      -7.180973e-02 
       2.200000e+00       7.180859e-02       7.180433e-02 
       2.200000e+00      -7.180548e-02       7.180433e-02 
       2.200000e+00      -7.180548e-02      -7.180973e-02 
       2.200000e+00       7.180859e-02      -7.180973e-02 
       2.200000e+00       7.180859e-02       7.180433e-02 
       2.200000e+00      -7.180548e-02       7.180433e-02 
       2.400000e+00      -7.180520e-02      -7.181022e-02 
       2.400000e+00       7.180887e-02      -7.181022e-02 
       2.400000e+00       7.180887e-02       7.180384e-02 
       2.400000e+00      -7.180520e-02       7.180384e-02 
       2.400000e+00      -7.180520e-02      -7.181022e-02 
       2.400000e+00       7.180887e-02      -7.181022e-02 
       2.400000e+00       7.180887e-02       7.180384e-02 
       2.400000e+00      -7.180520e-02       7.180384e-02 
       2.600000e+00      -7.180489e-02      -7.181075e-02 
       2.600000e+00       7.180917e-02      -7.181075e-02 
       2.600000e+00       7.180917e-02       7.180332e-02 
       2.600000e+00      -7.180489e-02       7.180332e-02 
       2.600000e+00      -7.180489e-02      -7.181075e-02 
       2.600000e+00       7.180917e-02      -7.181075e-02 
       2.600000e+00       7.180917e-02       7.180332e-02 
       2.600000e+00      -7.180489e-02       7.180332e-02 
       2.800000e+00      -7.180457e-02      -7.181131e-02 
       2.800000e+00       7.180950e-02      -7.181131e-02 
       2.800000e+00       7.180950e-02       7.180275e-02 
       2.800000e+00      -7.180457e-02       7.180275e-02 
       2.800000e+00      -7.180457e-02      -7.181131e-02 
       2.800000e+00       7.180950e-02      -7.181131e-02 
       2.800000e+00       7.180950e-02       7.180275e-02 
       2.800000e+00      -7.180457e-02       7.180275e-02 
       3.000000e+00      -7.180422e-02      -7.181191e-02 
       3.000000e+00       7.180984e-02      -7.181191e-02 
       3.000000e+00       7.180984e-02       7.180215e-02 
       3.000000e+00      -7.180422e-02       7.180215e-02 
       3.000000e+00      -7.180422e-02      -7.181191e-02 
       3.000000e+00       7.180984e-02      -7.181191e-02 
       3.000000e+00       7.180984e-02       7.180215e-02 
       3.000000e+00      -7.180422e-02       7.180215e-02 
       3.200000e+00      -7.180386e-02      -7.181254e-02 
       3.200000e+00       7.181021e-02      -7.181254e-02 
       3.200000e+00       7.181021e-02       7.180152e-02 
       3.200000e+00      -7.180386e-02       7.180152e-02 
       3.200000e+00      -7.180386e-02      -7.181254e-02 
       3.200000e+00       7.181021e-02      -7.181254e-02 
       3.200000e+00       7.181021e-02       7.180152e-02 
       3.200000e+00      -7.180386e-02       7.180152e-02 
       3.400000e+00      -7.180347e-02      -7.181321e-02 
       3.400000e+00       7.181059e-02      -7.181321e-02 
       3.400000e+00       7.181059e-02       7.180086e-02 
       3.400000e+00      -7.180347e-02       7.180086e-02 
       3.400000e+00      -7.180347e-02      -7.181321e-02 
       3.400000e+00       7.181059e-02      -7.181321e-02 
       3.400000e+00       7.181059e-02       7.180086e-02 
       3.400000e+00      -7.180347e-02       7.180086e-02 
       3.600000e+00      -7.180307e-02      -7.181391e-02 
       3.600000e+00       7.181099e-02      -7.181391e-02 
       3.600000e+00       7.181099e-02       7.180016e-02 
       3.600000e+00      -7.180307e-02       7.180016e-02 
       3.600000e+00      -7.180307e-02      -7.181391e-02 
       3.600000e+00       7.181099e-02      -7.181391e-02 
       3.600000e+00       7.181099e-02       7.180016e-02 
       3.600000e+00      -7.180307e-02       7.180016e-02 
       3.800000e+00      -7.180265e-02      -7.181464e-02 
       3.800000e+00       7.181142e-02      -7.181464e-02 
       3.800000e+00       7.181142e-02       7.179943e-02 
       3.800000e+00      -7.180265e-02       7.179943e-02 
       3.800000e+00      -7.180265e-02      -7.181464e-02 
       3.800000e+00       7.181142e-02      -7.181464e-02 
       3.800000e+00       7.181142e-02       7.179943e-02 
       3.800000e+00      -7.180265e-02       7.179943e-02 
       4.000000e+00      -7.180221e-02      -7.181540e-02 
       4.000000e+00       7.181186e-02      -7.181540e-02 
       4.000000e+00       7.181186e-02       7.179867e-02 
       4.000000e+00      -7.180221e-02       7.179867e-02 
       4.000000e+00      -7.180221e-02      -7.181540e-02 
       4.000000e+00       7.181186e-02      -7.181540e-02 
       4.000000e+00       7.181186e-02       7.179867e-02 
       4.000000e+00      -7.180221e-02       7.179867e-02 
       4.200000e+00      -7.180175e-02      -7.181619e-02 
[...]
POINT_DATA       800 
VECTORS Displacements float
       5.76765334e-24       0.00000000e+00       0.00000000e+00 
       1.65107994e-23       0.00000000e+00       0.00000000e+00 
      -5.76765334e-24       0.00000000e+00       0.00000000e+00 
      -1.65107994e-23       0.00000000e+00       0.00000000e+00 
      -7.34724384e-09       1.37061979e-08      -2.39227536e-08 
      -2.69681798e-08       1.37061966e-08      -2.39227262e-08 
       7.27288132e-09       1.37061738e-08      -2.39227303e-08 
       2.68938173e-08       1.37061752e-08      -2.39227576e-08 
      -7.34724384e-09       1.37061979e-08      -2.39227536e-08 
      -2.69681798e-08       1.37061966e-08      -2.39227262e-08 
       7.27288132e-09       1.37061738e-08      -2.39227303e-08 
       2.68938173e-08       1.37061752e-08      -2.39227576e-08 
      -1.45376990e-08       5.44734086e-08      -9.50483708e-08 
      -5.34011212e-08       5.44734034e-08      -9.50483115e-08 
       1.43888330e-08       5.44733624e-08      -9.50483275e-08 
       5.32522552e-08       5.44733677e-08      -9.50483868e-08 
      -1.45376990e-08       5.44734086e-08      -9.50483708e-08 
      -5.34011212e-08       5.44734034e-08      -9.50483115e-08 
       1.43888330e-08       5.44733624e-08      -9.50483275e-08 
       5.32522552e-08       5.44733677e-08      -9.50483868e-08 
      -2.15713640e-08       1.21774595e-07      -2.12412924e-07 
      -7.92988230e-08       1.21774584e-07      -2.12412828e-07 
       2.13478563e-08       1.21774529e-07      -2.12412864e-07 
       7.90753152e-08       1.21774540e-07      -2.12412959e-07 
      -2.15713640e-08       1.21774595e-07      -2.12412924e-07 
      -7.92988230e-08       1.21774584e-07      -2.12412828e-07 
       2.13478563e-08       1.21774529e-07      -2.12412864e-07 
       7.90753152e-08       1.21774540e-07      -2.12412959e-07 
      -2.84482377e-08       2.15082721e-07      -3.75052485e-07 
      -1.04661283e-07       2.15082701e-07      -3.75052349e-07 
       2.81499528e-08       2.15082636e-07      -3.75052411e-07 
       1.04362999e-07       2.15082656e-07      -3.75052546e-07 
      -2.84482377e-08       2.15082721e-07      -3.75052485e-07 
      -1.04661283e-07       2.15082701e-07      -3.75052349e-07 
       2.81499528e-08       2.15082636e-07      -3.75052411e-07 
       1.04362999e-07       2.15082656e-07      -3.75052546e-07 
      -3.51683181e-08       3.33870748e-07      -5.82003126e-07 
      -1.29488501e-07       3.33870717e-07      -5.82002947e-07 
       3.47951239e-08       3.33870646e-07      -5.82003041e-07 
       1.29115307e-07       3.33870677e-07      -5.82003220e-07 
      -3.51683181e-08       3.33870748e-07      -5.82003126e-07 
      -1.29488501e-07       3.33870717e-07      -5.82002947e-07 
       3.47951239e-08       3.33870646e-07      -5.82003041e-07 
       1.29115307e-07       3.33870677e-07      -5.82003220e-07 
      -4.17316048e-08       4.77611641e-07      -8.32300920e-07 
      -1.53780476e-07       4.77611597e-07      -8.32300694e-07 
       4.12833707e-08       4.77611523e-07      -8.32300826e-07 
       1.53332242e-07       4.77611566e-07      -8.32301053e-07 
      -4.17316048e-08       4.77611641e-07      -8.32300920e-07 
      -1.53780476e-07       4.77611597e-07      -8.32300694e-07 
       4.12833707e-08       4.77611523e-07      -8.32300826e-07 
       1.53332242e-07       4.77611566e-07      -8.32301053e-07 
      -4.81380951e-08       6.45778361e-07      -1.12498194e-06 
      -1.77537204e-07       6.45778303e-07      -1.12498166e-06 
       4.76146953e-08       6.45778229e-07      -1.12498184e-06 
       1.77013804e-07       6.45778287e-07      -1.12498212e-06 
      -4.81380951e-08       6.45778361e-07      -1.12498194e-06 
      -1.77537204e-07       6.45778303e-07      -1.12498166e-06 
       4.76146953e-08       6.45778229e-07      -1.12498184e-06 
       1.77013804e-07       6.45778287e-07      -1.12498212e-06 
      -5.43877883e-08       8.37843873e-07      -1.45908225e-06 
      -2.00758686e-07       8.37843799e-07      -1.45908192e-06 
       5.37890985e-08       8.37843728e-07      -1.45908215e-06 
       2.00159996e-07       8.37843802e-07      -1.45908248e-06 
      -5.43877883e-08       8.37843873e-07      -1.45908225e-06 
      -2.00758686e-07       8.37843799e-07      -1.45908192e-06 
       5.37890985e-08       8.37843728e-07      -1.45908215e-06 
       2.00159996e-07       8.37843802e-07      -1.45908248e-06 
      -6.04806827e-08       1.05328114e-06      -1.83363794e-06 
      -2.23444919e-07       1.05328105e-06      -1.83363755e-06 
       5.98065821e-08       1.05328098e-06      -1.83363783e-06 
       2.22770818e-07       1.05328107e-06      -1.83363822e-06 
      -6.04806827e-08       1.05328114e-06      -1.83363794e-06 
      -2.23444919e-07       1.05328105e-06      -1.83363755e-06 
       5.98065821e-08       1.05328098e-06      -1.83363783e-06 
       2.22770818e-07       1.05328107e-06      -1.83363822e-06 
      -6.64167772e-08       1.29156312e-06      -2.24768506e-06 
      -2.45595903e-07       1.29156301e-06      -2.24768462e-06 
       6.56671468e-08       1.29156295e-06      -2.24768496e-06 
       2.44846273e-07       1.29156307e-06      -2.24768540e-06 
      -6.64167774e-08       1.29156312e-06      -2.24768506e-06 
      -2.45595903e-07       1.29156301e-06      -2.24768462e-06 
       6.56671473e-08       1.29156295e-06      -2.24768496e-06 
       2.44846273e-07       1.29156307e-06      -2.24768540e-06 
      -7.21922153e-08       1.55217222e-06      -2.70027895e-06 
      -2.67227969e-07       1.55217209e-06      -2.70027846e-06 
       7.13951622e-08       1.55217206e-06      -2.70027885e-06 
       2.66430916e-07       1.55217219e-06      -2.70027935e-06 
      -7.21922153e-08       1.55217222e-06      -2.70027895e-06 
      -2.67227969e-07       1.55217209e-06      -2.70027846e-06 
       7.13951622e-08       1.55217206e-06      -2.70027885e-06 
       2.66430916e-07       1.55217219e-06      -2.70027935e-06 
      -7.78302263e-08       1.83462776e-06      -3.19054763e-06 
      -2.88383908e-07       1.83462761e-06      -3.19054708e-06 
       7.69854434e-08       1.83462760e-06      -3.19054755e-06 
       2.87539125e-07       1.83462775e-06      -3.19054809e-06 
      -7.78302263e-08       1.83462776e-06      -3.19054763e-06 
      -2.88383908e-07       1.83462761e-06      -3.19054708e-06 
       7.69854434e-08       1.83462760e-06      -3.19054755e-06 
       2.87539125e-07       1.83462775e-06      -3.19054809e-06 
      -8.33308067e-08       2.13845806e-06      -3.71763622e-06 
      -3.09063719e-07       2.13845788e-06      -3.71763562e-06 
       8.24379924e-08       2.13845790e-06      -3.71763615e-06 
       3.08170905e-07       2.13845807e-06      -3.71763676e-06 
      -8.33308067e-08       2.13845806e-06      -3.71763622e-06 
      -3.09063719e-07       2.13845788e-06      -3.71763562e-06 
       8.24379924e-08       2.13845790e-06      -3.71763615e-06 
       3.08170905e-07       2.13845807e-06      -3.71763676e-06 
      -8.86939531e-08       2.46319143e-06      -4.28068986e-06 
      -3.29267396e-07       2.46319123e-06      -4.28068920e-06 
       8.77528139e-08       2.46319127e-06      -4.28068981e-06 
       3.28326257e-07       2.46319148e-06      -4.28069046e-06 
      -8.86939531e-08       2.46319143e-06      -4.28068986e-06 
      -3.29267396e-07       2.46319123e-06      -4.28068920e-06 
       8.77528139e-08       2.46319127e-06      -4.28068981e-06 
       3.28326257e-07       2.46319148e-06      -4.28069046e-06 
      -9.39196623e-08       2.80835621e-06      -4.87885366e-06 
      -3.48994938e-07       2.80835598e-06      -4.87885294e-06 
       9.29299109e-08       2.80835605e-06      -4.87885362e-06 
       3.48005186e-07       2.80835628e-06      -4.87885434e-06 
      -9.39196623e-08       2.80835621e-06      -4.87885366e-06 
      -3.48994938e-07       2.80835598e-06      -4.87885294e-06 
       9.29299109e-08       2.80835605e-06      -4.87885362e-06 
       3.48005186e-07       2.80835628e-06      -4.87885434e-06 
      -9.90079307e-08       3.17348070e-06      -5.51127275e-06 
      -3.68246339e-07       3.17348045e-06      -5.51127198e-06 
       9.79692869e-08       3.17348055e-06      -5.51127273e-06 
       3.67207695e-07       3.17348080e-06      -5.51127351e-06 
      -9.90079307e-08       3.17348070e-06      -5.51127275e-06 
      -3.68246339e-07       3.17348045e-06      -5.51127198e-06 
       9.79692869e-08       3.17348055e-06      -5.51127273e-06 
       3.67207695e-07       3.17348080e-06      -5.51127351e-06 
      -1.03958754e-07       3.55809323e-06      -6.17709225e-06 
      -3.87021597e-07       3.55809295e-06      -6.17709142e-06 
       1.02870946e-07       3.55809309e-06      -6.17709226e-06 
       3.85933788e-07       3.55809337e-06      -6.17709309e-06 
      -1.03958754e-07       3.55809323e-06      -6.17709225e-06 
      -3.87021597e-07       3.55809295e-06      -6.17709142e-06 
       1.02870946e-07       3.55809309e-06      -6.17709226e-06 
       3.85933788e-07       3.55809337e-06      -6.17709309e-06 
      -1.08772131e-07       3.96172213e-06      -6.87545730e-06 
      -4.05320709e-07       3.96172182e-06      -6.87545641e-06 
       1.07634890e-07       3.96172199e-06      -6.87545732e-06 
       4.04183468e-07       3.96172229e-06      -6.87545822e-06 
      -1.08772131e-07       3.96172213e-06      -6.87545730e-06 
      -4.05320709e-07       3.96172182e-06      -6.87545641e-06 
       1.07634890e-07       3.96172199e-06      -6.87545732e-06 
       4.04183468e-07       3.96172229e-06      -6.87545822e-06 
      -1.13448055e-07       4.38389570e-06      -7.60551301e-06 
      -4.23143670e-07       4.38389537e-06      -7.60551205e-06 
       1.12261124e-07       4.38389557e-06      -7.60551305e-06 
       4.21956739e-07       4.38389590e-06      -7.60551401e-06 
      -1.13448055e-07       4.38389570e-06      -7.60551301e-06 
      -4.23143670e-07       4.38389537e-06      -7.60551205e-06 
       1.12261124e-07       4.38389557e-06      -7.60551305e-06 
       4.21956739e-07       4.38389590e-06      -7.60551401e-06 
      -1.17986526e-07       4.82414228e-06      -8.36640451e-06 
      -4.40490478e-07       4.82414192e-06      -8.36640349e-06 
       1.16749651e-07       4.82414215e-06      -8.36640457e-06 
       4.39253603e-07       4.82414251e-06      -8.36640559e-06 
      -1.17986526e-07       4.82414228e-06      -8.36640451e-06 
      -4.40490478e-07       4.82414192e-06      -8.36640349e-06 
       1.16749651e-07       4.82414215e-06      -8.36640457e-06 
       4.39253602e-07       4.82414251e-06      -8.36640559e-06 
      -1.22387133e-07       5.28199932e-06      -9.15729488e-06 
      -4.57380456e-07       5.28199893e-06      -9.15729380e-06 
       1.21119836e-07       5.28199920e-06      -9.15729497e-06 
       4.56113159e-07       5.28199960e-06      -9.15729604e-06 
      -1.22387133e-07       5.28199932e-06      -9.15729488e-06 
      -4.57380456e-07       5.28199893e-06      -9.15729380e-06 
       1.21119836e-07       5.28199920e-06      -9.15729497e-06 
       4.56113159e-07       5.28199960e-06      -9.15729604e-06 
      -1.26669211e-07       5.75704107e-06      -9.97741903e-06 
      -4.73852823e-07       5.75704065e-06      -9.97741790e-06 
       1.25371132e-07       5.75704097e-06      -9.97741915e-06 
       4.72554744e-07       5.75704139e-06      -9.97742028e-06 
      -1.26669211e-07       5.75704107e-06      -9.97741903e-06 
      -4.73852823e-07       5.75704065e-06      -9.97741790e-06 
       1.25371132e-07       5.75704097e-06      -9.97741915e-06 
       4.72554744e-07       5.75704139e-06      -9.97742028e-06 
      -1.30832752e-07       6.24885102e-06      -1.08260298e-05 
      -4.89907571e-07       6.24885057e-06      -1.08260286e-05 
       1.29503546e-07       6.24885093e-06      -1.08260300e-05 
       4.88578364e-07       6.24885138e-06      -1.08260312e-05 
      -1.30832752e-07       6.24885102e-06      -1.08260298e-05 
      -4.89907571e-07       6.24885057e-06      -1.08260286e-05 
       1.29503546e-07       6.24885093e-06      -1.08260300e-05 
       4.88578364e-07       6.24885138e-06      -1.08260312e-05 
      -1.34877754e-07       6.75701266e-06      -1.17023801e-05 
      -5.05544699e-07       6.75701218e-06      -1.17023789e-05 
       1.33517078e-07       6.75701259e-06      -1.17023803e-05 
       5.04184023e-07       6.75701307e-06      -1.17023815e-05 
      -1.34877754e-07       6.75701266e-06      -1.17023801e-05 
      -5.05544699e-07       6.75701218e-06      -1.17023789e-05 
       1.33517078e-07       6.75701259e-06      -1.17023803e-05 
       5.04184023e-07       6.75701307e-06      -1.17023815e-05 
      -1.38804213e-07       7.28110949e-06      -1.26057228e-05 
      -5.20764202e-07       7.28110899e-06      -1.26057215e-05 
       1.37411736e-07       7.28110943e-06      -1.26057230e-05 
       5.19371725e-07       7.28110994e-06      -1.26057243e-05 
      -1.38804213e-07       7.28110949e-06      -1.26057228e-05 
      -5.20764202e-07       7.28110899e-06      -1.26057215e-05 
       1.37411736e-07       7.28110943e-06      -1.26057230e-05 
       5.19371725e-07       7.28110994e-06      -1.26057243e-05 
      -1.42612123e-07       7.82072501e-06      -1.35353106e-05 
      -5.35566074e-07       7.82072447e-06      -1.35353093e-05 
       1.41187523e-07       7.82072496e-06      -1.35353109e-05 
       5.34141474e-07       7.82072550e-06      -1.35353122e-05 
      -1.42612123e-07       7.82072501e-06      -1.35353106e-05 
      -5.35566074e-07       7.82072447e-06      -1.35353093e-05 
       1.41187523e-07       7.82072496e-06      -1.35353109e-05 
       5.34141474e-07       7.82072550e-06      -1.35353122e-05 
      -1.46301480e-07       8.37544269e-06      -1.44903966e-05 
      -5.49950311e-07       8.37544212e-06      -1.44903952e-05 
       1.44844444e-07       8.37544266e-06      -1.44903968e-05 
       5.48493276e-07       8.37544322e-06      -1.44903982e-05 
      -1.46301480e-07       8.37544269e-06      -1.44903966e-05 
      -5.49950311e-07       8.37544212e-06      -1.44903952e-05 
       1.44844444e-07       8.37544266e-06      -1.44903968e-05 
       5.48493276e-07       8.37544322e-06      -1.44903982e-05 
      -1.49872278e-07       8.94484603e-06      -1.54702334e-05 
      -5.63916909e-07       8.94484544e-06      -1.54702320e-05 
       1.48382505e-07       8.94484602e-06      -1.54702337e-05 
       5.62427136e-07       8.94484661e-06      -1.54702352e-05 
      -1.49872278e-07       8.94484603e-06      -1.54702334e-05 
      -5.63916909e-07       8.94484544e-06      -1.54702320e-05 
       1.48382505e-07       8.94484602e-06      -1.54702337e-05 
       5.62427136e-07       8.94484661e-06      -1.54702352e-05 
      -1.53324515e-07       9.52851854e-06      -1.64740741e-05 
      -5.77465864e-07       9.52851791e-06      -1.64740726e-05 
       1.51801708e-07       9.52851853e-06      -1.64740744e-05 
       5.75943056e-07       9.52851916e-06      -1.64740759e-05 
      -1.53324515e-07       9.52851854e-06      -1.64740741e-05 
      -5.77465864e-07       9.52851791e-06      -1.64740726e-05 
       1.51801708e-07       9.52851853e-06      -1.64740744e-05 
       5.75943056e-07       9.52851916e-06      -1.64740759e-05 
      -1.56658187e-07       1.01260437e-05      -1.75011714e-05 
      -5.90597169e-07       1.01260430e-05      -1.75011698e-05 
       1.55102057e-07       1.01260437e-05      -1.75011717e-05 
       5.89041042e-07       1.01260444e-05      -1.75011733e-05 
      -1.56658186e-07       1.01260437e-05      -1.75011714e-05 
      -5.90597169e-07       1.01260430e-05      -1.75011698e-05 
       1.55102058e-07       1.01260437e-05      -1.75011717e-05 
       5.89041042e-07       1.01260444e-05      -1.75011733e-05 
      -1.59876156e-07       1.07370141e-05      -1.85507961e-05 
      -6.03333417e-07       1.07370134e-05      -1.85507944e-05 
       1.58299557e-07       1.07370141e-05      -1.85507964e-05 
       6.01756818e-07       1.07370148e-05      -1.85507981e-05 
      -1.59876156e-07       1.07370141e-05      -1.85507961e-05 
      -6.03333417e-07       1.07370134e-05      -1.85507944e-05 
       1.58299557e-07       1.07370141e-05      -1.85507964e-05 
       6.01756818e-07       1.07370148e-05      -1.85507981e-05 
      -1.62994477e-07       1.13610593e-05      -1.96222909e-05 
      -6.15710783e-07       1.13610586e-05      -1.96222892e-05 
       1.61397069e-07       1.13610594e-05      -1.96222913e-05 
       6.14113376e-07       1.13610601e-05      -1.96222930e-05 
      -1.62994477e-07       1.13610593e-05      -1.96222909e-05 
      -6.15710783e-07       1.13610586e-05      -1.96222892e-05 
       1.61397069e-07       1.13610594e-05      -1.96222913e-05 
       6.14113376e-07       1.13610601e-05      -1.96222930e-05 
      -1.66013143e-07       1.19978184e-05      -2.07150168e-05 
      -6.27729261e-07       1.19978177e-05      -2.07150151e-05 
       1.64394603e-07       1.19978185e-05      -2.07150173e-05 
       6.26110721e-07       1.19978192e-05      -2.07150190e-05 
      -1.66013143e-07       1.19978184e-05      -2.07150168e-05 
      -6.27729261e-07       1.19978177e-05      -2.07150151e-05 
       1.64394603e-07       1.19978185e-05      -2.07150173e-05 
       6.26110721e-07       1.19978192e-05      -2.07150190e-05 
      -1.68932151e-07       1.26469303e-05      -2.18283349e-05 
      -6.39388847e-07       1.26469296e-05      -2.18283331e-05 
       1.67292159e-07       1.26469304e-05      -2.18283353e-05 
       6.37748855e-07       1.26469312e-05      -2.18283371e-05 
      -1.68932151e-07       1.26469303e-05      -2.18283349e-05 
      -6.39388847e-07       1.26469296e-05      -2.18283331e-05 
       1.67292159e-07       1.26469304e-05      -2.18283353e-05 
       6.37748855e-07       1.26469312e-05      -2.18283371e-05 
      -1.71751496e-07       1.33080341e-05      -2.29616060e-05 
      -6.50689536e-07       1.33080333e-05      -2.29616042e-05 
       1.70089745e-07       1.33080342e-05      -2.29616065e-05 
       6.49027785e-07       1.33080349e-05      -2.29616083e-05 
      -1.71751496e-07       1.33080341e-05      -2.29616060e-05 
      -6.50689536e-07       1.33080333e-05      -2.29616042e-05 
       1.70089745e-07       1.33080342e-05      -2.29616065e-05 
       6.49027785e-07       1.33080349e-05      -2.29616083e-05 
      -1.74471172e-07       1.39807686e-05      -2.41141912e-05 
      -6.61631324e-07       1.39807677e-05      -2.41141893e-05 
       1.72787364e-07       1.39807687e-05      -2.41141917e-05 
       6.59947516e-07       1.39807695e-05      -2.41141936e-05 
      -1.74471172e-07       1.39807686e-05      -2.41141912e-05 
      -6.61631324e-07       1.39807677e-05      -2.41141893e-05 
       1.72787364e-07       1.39807687e-05      -2.41141917e-05 
       6.59947516e-07       1.39807695e-05      -2.41141936e-05 
      -1.77091176e-07       1.46647729e-05      -2.52854514e-05 
      -6.72214205e-07       1.46647720e-05      -2.52854494e-05 
       1.75385022e-07       1.46647730e-05      -2.52854519e-05 
       6.70508053e-07       1.46647738e-05      -2.52854539e-05 
      -1.77091176e-07       1.46647729e-05      -2.52854514e-05 
      -6.72214205e-07       1.46647720e-05      -2.52854494e-05 
       1.75385022e-07       1.46647730e-05      -2.52854519e-05 
       6.70508053e-07       1.46647738e-05      -2.52854539e-05 
      -1.79611499e-07       1.53596859e-05      -2.64747475e-05 
      -6.82438174e-07       1.53596850e-05      -2.64747455e-05 
       1.77882725e-07       1.53596861e-05      -2.64747481e-05 
       6.80709400e-07       1.53596869e-05      -2.64747501e-05 
      -1.79611499e-07       1.53596859e-05      -2.64747475e-05 
      -6.82438174e-07       1.53596850e-05      -2.64747455e-05 