# vtk DataFile Version 2.0
./output/onsasExample_BladeCantileverBeamNoPitch_windVel3DDynamic 3D/onsasExample_BladeCantileverBeamNoPitch_windVel3DDynamic 3D_0212.vtk
ASCII
DATASET UNSTRUCTURED_GRID

POINTS 800 float
       2.822930e-23      -7.180703e-02      -7.180703e-02 
       3.179643e-23       7.180703e-02      -7.180703e-02 
      -2.822930e-23       7.180703e-02       7.180703e-02 
      -3.179643e-23      -7.180703e-02       7.180703e-02 
       2.000000e-01      -7.180702e-02      -7.180706e-02 
       2.000000e-01       7.180705e-02      -7.180706e-02 
       2.000000e-01       7.180705e-02       7.180701e-02 
       2.000000e-01      -7.180702e-02       7.180701e-02 
       2.000000e-01      -7.180702e-02      -7.180706e-02 
       2.000000e-01       7.180705e-02      -7.180706e-02 
       2.000000e-01       7.180705e-02       7.180701e-02 
       2.000000e-01      -7.180702e-02       7.180701e-02 
       4.000000e-01      -7.180698e-02      -7.180714e-02 
       3.999999e-01       7.180709e-02      -7.180714e-02 
       4.000000e-01       7.180709e-02       7.180693e-02 
       4.000001e-01      -7.180698e-02       7.180693e-02 
       4.000000e-01      -7.180698e-02      -7.180714e-02 
       3.999999e-01       7.180709e-02      -7.180714e-02 
       4.000000e-01       7.180709e-02       7.180693e-02 
       4.000001e-01      -7.180698e-02       7.180693e-02 
       6.000000e-01      -7.180691e-02      -7.180727e-02 
       5.999999e-01       7.180715e-02      -7.180727e-02 
       6.000000e-01       7.180715e-02       7.180680e-02 
       6.000001e-01      -7.180691e-02       7.180680e-02 
       6.000000e-01      -7.180691e-02      -7.180727e-02 
       5.999999e-01       7.180715e-02      -7.180727e-02 
       6.000000e-01       7.180715e-02       7.180680e-02 
       6.000001e-01      -7.180691e-02       7.180680e-02 
       8.000000e-01      -7.180682e-02      -7.180745e-02 
       7.999999e-01       7.180725e-02      -7.180745e-02 
       8.000000e-01       7.180725e-02       7.180662e-02 
       8.000001e-01      -7.180682e-02       7.180662e-02 
       8.000000e-01      -7.180682e-02      -7.180745e-02 
       7.999999e-01       7.180725e-02      -7.180745e-02 
       8.000000e-01       7.180725e-02       7.180662e-02 
       8.000001e-01      -7.180682e-02       7.180662e-02 
       1.000000e+00      -7.180670e-02      -7.180768e-02 
       9.999999e-01       7.180736e-02      -7.180768e-02 
       1.000000e+00       7.180736e-02       7.180639e-02 
       1.000000e+00      -7.180670e-02       7.180639e-02 
       1.000000e+00      -7.180670e-02      -7.180768e-02 
       9.999999e-01       7.180736e-02      -7.180768e-02 
       1.000000e+00       7.180736e-02       7.180639e-02 
       1.000000e+00      -7.180670e-02       7.180639e-02 
       1.200000e+00      -7.180656e-02      -7.180796e-02 
       1.200000e+00       7.180751e-02      -7.180796e-02 
       1.200000e+00       7.180751e-02       7.180611e-02 
       1.200000e+00      -7.180656e-02       7.180611e-02 
       1.200000e+00      -7.180656e-02      -7.180796e-02 
       1.200000e+00       7.180751e-02      -7.180796e-02 
       1.200000e+00       7.180751e-02       7.180611e-02 
       1.200000e+00      -7.180656e-02       7.180611e-02 
       1.400000e+00      -7.180639e-02      -7.180828e-02 
       1.400000e+00       7.180767e-02      -7.180828e-02 
       1.400000e+00       7.180767e-02       7.180579e-02 
       1.400000e+00      -7.180639e-02       7.180579e-02 
       1.400000e+00      -7.180639e-02      -7.180828e-02 
       1.400000e+00       7.180767e-02      -7.180828e-02 
       1.400000e+00       7.180767e-02       7.180579e-02 
       1.400000e+00      -7.180639e-02       7.180579e-02 
       1.600000e+00      -7.180620e-02      -7.180865e-02 
       1.600000e+00       7.180787e-02      -7.180865e-02 
       1.600000e+00       7.180787e-02       7.180541e-02 
       1.600000e+00      -7.180620e-02       7.180541e-02 
       1.600000e+00      -7.180620e-02      -7.180865e-02 
       1.600000e+00       7.180787e-02      -7.180865e-02 
       1.600000e+00       7.180787e-02       7.180541e-02 
       1.600000e+00      -7.180620e-02       7.180541e-02 
       1.800000e+00      -7.180599e-02      -7.180907e-02 
       1.800000e+00       7.180808e-02      -7.180907e-02 
       1.800000e+00       7.180808e-02       7.180500e-02 
       1.800000e+00      -7.180599e-02       7.180500e-02 
       1.800000e+00      -7.180599e-02      -7.180907e-02 
       1.800000e+00       7.180808e-02      -7.180907e-02 
       1.800000e+00       7.180808e-02       7.180500e-02 
       1.800000e+00      -7.180599e-02       7.180500e-02 
       2.000000e+00      -7.180575e-02      -7.180953e-02 
       2.000000e+00       7.180832e-02      -7.180953e-02 
       2.000000e+00       7.180832e-02       7.180454e-02 
       2.000000e+00      -7.180575e-02       7.180454e-02 
       2.000000e+00      -7.180575e-02      -7.180953e-02 
       2.000000e+00       7.180832e-02      -7.180953e-02 
       2.000000e+00       7.180832e-02       7.180454e-02 
       2.000000e+00      -7.180575e-02       7.180454e-02 
       2.200000e+00      -7.180549e-02      -7.181003e-02 
       2.200000e+00       7.180858e-02      -7.181003e-02 
       2.200000e+00       7.180858e-02       7.180403e-02 
       2.200000e+00      -7.180549e-02       7.180403e-02 
       2.200000e+00      -7.180549e-02      -7.181003e-02 
       2.200000e+00       7.180858e-02      -7.181003e-02 
       2.200000e+00       7.180858e-02       7.180403e-02 
       2.200000e+00      -7.180549e-02       7.180403e-02 
       2.400000e+00      -7.180521e-02      -7.181058e-02 
       2.400000e+00       7.180886e-02      -7.181058e-02 
       2.400000e+00       7.180886e-02       7.180349e-02 
       2.400000e+00      -7.180521e-02       7.180349e-02 
       2.400000e+00      -7.180521e-02      -7.181058e-02 
       2.400000e+00       7.180886e-02      -7.181058e-02 
       2.400000e+00       7.180886e-02       7.180349e-02 
       2.400000e+00      -7.180521e-02       7.180349e-02 
       2.600000e+00      -7.180491e-02      -7.181117e-02 
       2.600000e+00       7.180916e-02      -7.181117e-02 
       2.600000e+00       7.180916e-02       7.180290e-02 
       2.600000e+00      -7.180491e-02       7.180290e-02 
       2.600000e+00      -7.180491e-02      -7.181117e-02 
       2.600000e+00       7.180916e-02      -7.181117e-02 
       2.600000e+00       7.180916e-02       7.180290e-02 
       2.600000e+00      -7.180491e-02       7.180290e-02 
       2.800000e+00      -7.180459e-02      -7.181179e-02 
       2.800000e+00       7.180948e-02      -7.181179e-02 
       2.800000e+00       7.180948e-02       7.180227e-02 
       2.800000e+00      -7.180459e-02       7.180227e-02 
       2.800000e+00      -7.180459e-02      -7.181179e-02 
       2.800000e+00       7.180948e-02      -7.181179e-02 
       2.800000e+00       7.180948e-02       7.180227e-02 
       2.800000e+00      -7.180459e-02       7.180227e-02 
       3.000000e+00      -7.180424e-02      -7.181246e-02 
       3.000000e+00       7.180982e-02      -7.181246e-02 
       3.000000e+00       7.180982e-02       7.180160e-02 
       3.000000e+00      -7.180424e-02       7.180160e-02 
       3.000000e+00      -7.180424e-02      -7.181246e-02 
       3.000000e+00       7.180982e-02      -7.181246e-02 
       3.000000e+00       7.180982e-02       7.180160e-02 
       3.000000e+00      -7.180424e-02       7.180160e-02 
       3.200000e+00      -7.180388e-02      -7.181317e-02 
       3.200000e+00       7.181019e-02      -7.181317e-02 
       3.200000e+00       7.181019e-02       7.180090e-02 
       3.200000e+00      -7.180388e-02       7.180090e-02 
       3.200000e+00      -7.180388e-02      -7.181317e-02 
       3.200000e+00       7.181019e-02      -7.181317e-02 
       3.200000e+00       7.181019e-02       7.180090e-02 
       3.200000e+00      -7.180388e-02       7.180090e-02 
       3.400000e+00      -7.180350e-02      -7.181391e-02 
       3.400000e+00       7.181057e-02      -7.181391e-02 
       3.400000e+00       7.181057e-02       7.180015e-02 
       3.400000e+00      -7.180350e-02       7.180015e-02 
       3.400000e+00      -7.180350e-02      -7.181391e-02 
       3.400000e+00       7.181057e-02      -7.181391e-02 
       3.400000e+00       7.181057e-02       7.180015e-02 
       3.400000e+00      -7.180350e-02       7.180015e-02 
       3.600000e+00      -7.180310e-02      -7.181469e-02 
       3.600000e+00       7.181097e-02      -7.181469e-02 
       3.600000e+00       7.181097e-02       7.179937e-02 
       3.600000e+00      -7.180310e-02       7.179937e-02 
       3.600000e+00      -7.180310e-02      -7.181469e-02 
       3.600000e+00       7.181097e-02      -7.181469e-02 
       3.600000e+00       7.181097e-02       7.179937e-02 
       3.600000e+00      -7.180310e-02       7.179937e-02 
       3.800000e+00      -7.180268e-02      -7.181551e-02 
       3.800000e+00       7.181139e-02      -7.181551e-02 
       3.800000e+00       7.181139e-02       7.179856e-02 
       3.800000e+00      -7.180268e-02       7.179856e-02 
       3.800000e+00      -7.180268e-02      -7.181551e-02 
       3.800000e+00       7.181139e-02      -7.181551e-02 
       3.800000e+00       7.181139e-02       7.179856e-02 
       3.800000e+00      -7.180268e-02       7.179856e-02 
       4.000000e+00      -7.180224e-02      -7.181636e-02 
       4.000000e+00       7.181183e-02      -7.181636e-02 
       4.000000e+00       7.181183e-02       7.179770e-02 
       4.000000e+00      -7.180224e-02       7.179770e-02 
       4.000000e+00      -7.180224e-02      -7.181636e-02 
       4.000000e+00       7.181183e-02      -7.181636e-02 
       4.000000e+00       7.181183e-02       7.179770e-02 
       4.000000e+00      -7.180224e-02       7.179770e-02 
       4.200000e+00      -7.180179e-02      -7.181725e-02 
[...]
POINT_DATA       800 
VECTORS Displacements float
       2.82293048e-23      -1.38777878e-17      -1.38777878e-17 
       3.17964312e-23       2.77555756e-17       0.00000000e+00 
      -2.82293048e-23       1.38777878e-17       1.38777878e-17 
      -3.17964312e-23      -2.77555756e-17       0.00000000e+00 
      -9.24823121e-09       1.36223719e-08      -2.64836450e-08 
      -2.87488950e-08       1.36223706e-08      -2.64836136e-08 
       9.16411935e-09       1.36223443e-08      -2.64836185e-08 
       2.86647832e-08       1.36223456e-08      -2.64836500e-08 
      -9.24823121e-09       1.36223719e-08      -2.64836450e-08 
      -2.87488950e-08       1.36223706e-08      -2.64836136e-08 
       9.16411935e-09       1.36223443e-08      -2.64836185e-08 
       2.86647832e-08       1.36223456e-08      -2.64836500e-08 
      -1.83218023e-08       5.41387488e-08      -1.05259374e-07 
      -5.69453781e-08       5.41387436e-08      -1.05259306e-07 
       1.81534136e-08       5.41386960e-08      -1.05259326e-07 
       5.67769894e-08       5.41387011e-08      -1.05259394e-07 
      -1.83218023e-08       5.41387488e-08      -1.05259374e-07 
      -5.69453781e-08       5.41387436e-08      -1.05259306e-07 
       1.81534136e-08       5.41386960e-08      -1.05259326e-07 
       5.67769894e-08       5.41387011e-08      -1.05259394e-07 
      -2.72207117e-08       1.21023066e-07      -2.35314422e-07 
      -8.45894478e-08       1.21023054e-07      -2.35314313e-07 
       2.69678841e-08       1.21022990e-07      -2.35314356e-07 
       8.43366202e-08       1.21023001e-07      -2.35314465e-07 
      -2.72207117e-08       1.21023066e-07      -2.35314422e-07 
      -8.45894478e-08       1.21023054e-07      -2.35314313e-07 
       2.69678841e-08       1.21022990e-07      -2.35314356e-07 
       8.43366202e-08       1.21023001e-07      -2.35314465e-07 
      -3.59449577e-08       2.13749257e-07      -4.15636022e-07 
      -1.11681102e-07       2.13749237e-07      -4.15635868e-07 
       3.56075328e-08       2.13749161e-07      -4.15635943e-07 
       1.11343677e-07       2.13749181e-07      -4.15636098e-07 
      -3.59449577e-08       2.13749257e-07      -4.15636022e-07 
      -1.11681102e-07       2.13749237e-07      -4.15635868e-07 
       3.56075328e-08       2.13749161e-07      -4.15635943e-07 
       1.11343677e-07       2.13749181e-07      -4.15636098e-07 
      -4.44945386e-08       3.31791259e-07      -6.45211410e-07 
      -1.38220340e-07       3.31791228e-07      -6.45211206e-07 
       4.40723611e-08       3.31791144e-07      -6.45211322e-07 
       1.37798162e-07       3.31791174e-07      -6.45211526e-07 
      -4.44945386e-08       3.31791259e-07      -6.45211410e-07 
      -1.38220340e-07       3.31791228e-07      -6.45211206e-07 
       4.40723611e-08       3.31791144e-07      -6.45211322e-07 
       1.37798162e-07       3.31791174e-07      -6.45211526e-07 
      -5.28694533e-08       4.74623005e-07      -9.23027819e-07 
      -1.64207160e-07       4.74622962e-07      -9.23027562e-07 
       5.23623704e-08       4.74622873e-07      -9.23027725e-07 
       1.63700077e-07       4.74622916e-07      -9.23027982e-07 
      -5.28694533e-08       4.74623005e-07      -9.23027819e-07 
      -1.64207160e-07       4.74622962e-07      -9.23027562e-07 
       5.23623704e-08       4.74622873e-07      -9.23027725e-07 
       1.63700077e-07       4.74622916e-07      -9.23027982e-07 
      -6.10696997e-08       6.41718432e-07      -1.24807248e-06 
      -1.89641560e-07       6.41718374e-07      -1.24807217e-06 
       6.04775627e-08       6.41718284e-07      -1.24807239e-06 
       1.89049423e-07       6.41718341e-07      -1.24807270e-06 
      -6.10696997e-08       6.41718432e-07      -1.24807248e-06 
      -1.89641560e-07       6.41718374e-07      -1.24807217e-06 
       6.04775627e-08       6.41718284e-07      -1.24807239e-06 
       1.89049423e-07       6.41718341e-07      -1.24807270e-06 
      -6.90952764e-08       8.32551472e-07      -1.61933264e-06 
      -2.14523538e-07       8.32551399e-07      -1.61933227e-06 
       6.84179395e-08       8.32551311e-07      -1.61933254e-06 
       2.13846201e-07       8.32551385e-07      -1.61933292e-06 
      -6.90952764e-08       8.32551472e-07      -1.61933264e-06 
      -2.14523538e-07       8.32551399e-07      -1.61933227e-06 
       6.84179395e-08       8.32551311e-07      -1.61933254e-06 
       2.13846201e-07       8.32551385e-07      -1.61933292e-06 
      -7.69461816e-08       1.04659606e-06      -2.03579552e-06 
      -2.38853093e-07       1.04659597e-06      -2.03579508e-06 
       7.61835022e-08       1.04659589e-06      -2.03579543e-06 
       2.38090413e-07       1.04659598e-06      -2.03579587e-06 
      -7.69461816e-08       1.04659606e-06      -2.03579552e-06 
      -2.38853093e-07       1.04659597e-06      -2.03579508e-06 
       7.61835022e-08       1.04659589e-06      -2.03579543e-06 
       2.38090413e-07       1.04659598e-06      -2.03579587e-06 
      -8.46224144e-08       1.28332614e-06      -2.49644836e-06 
      -2.62630224e-07       1.28332603e-06      -2.49644786e-06 
       8.37742524e-08       1.28332595e-06      -2.49644827e-06 
       2.61782062e-07       1.28332606e-06      -2.49644878e-06 
      -8.46224142e-08       1.28332614e-06      -2.49644836e-06 
      -2.62630223e-07       1.28332603e-06      -2.49644786e-06 
       8.37742529e-08       1.28332595e-06      -2.49644827e-06 
       2.61782062e-07       1.28332606e-06      -2.49644878e-06 
      -9.21189636e-08       1.54222531e-06      -3.00029704e-06 
      -2.85870585e-07       1.54222518e-06      -3.00029648e-06 
       9.12140323e-08       1.54222513e-06      -3.00029698e-06 
       2.84965653e-07       1.54222526e-06      -3.00029754e-06 
      -9.21189636e-08       1.54222531e-06      -3.00029704e-06 
      -2.85870585e-07       1.54222518e-06      -3.00029648e-06 
       9.12140323e-08       1.54222513e-06      -3.00029698e-06 
       2.84965653e-07       1.54222526e-06      -3.00029754e-06 
      -9.94587830e-08       1.82281486e-06      -3.54641823e-06 
      -3.08617029e-07       1.82281471e-06      -3.54641761e-06 
       9.84967179e-08       1.82281468e-06      -3.54641819e-06 
       3.07654964e-07       1.82281483e-06      -3.54641881e-06 
      -9.94587830e-08       1.82281486e-06      -3.54641823e-06 
      -3.08617029e-07       1.82281471e-06      -3.54641761e-06 
       9.84967179e-08       1.82281468e-06      -3.54641819e-06 
       3.07654964e-07       1.82281483e-06      -3.54641881e-06 
      -1.06641869e-07       2.12462521e-06      -4.13390532e-06 
      -3.30869554e-07       2.12462504e-06      -4.13390464e-06 
       1.05622313e-07       2.12462504e-06      -4.13390531e-06 
       3.29849998e-07       2.12462522e-06      -4.13390598e-06 
      -1.06641869e-07       2.12462521e-06      -4.13390532e-06 
      -3.30869554e-07       2.12462504e-06      -4.13390464e-06 
       1.05622313e-07       2.12462504e-06      -4.13390531e-06 
       3.29849998e-07       2.12462522e-06      -4.13390598e-06 
      -1.13668217e-07       2.44718680e-06      -4.76185170e-06 
      -3.52628154e-07       2.44718661e-06      -4.76185095e-06 
       1.12590820e-07       2.44718664e-06      -4.76185171e-06 
       3.51550757e-07       2.44718684e-06      -4.76185245e-06 
      -1.13668217e-07       2.44718680e-06      -4.76185170e-06 
      -3.52628154e-07       2.44718661e-06      -4.76185095e-06 
       1.12590820e-07       2.44718664e-06      -4.76185171e-06 
       3.51550757e-07       2.44718684e-06      -4.76185245e-06 
      -1.20537823e-07       2.79003006e-06      -5.42935074e-06 
      -3.73892826e-07       2.79002983e-06      -5.42934994e-06 
       1.19402245e-07       2.79002990e-06      -5.42935079e-06 
       3.72757248e-07       2.79003012e-06      -5.42935159e-06 
      -1.20537823e-07       2.79003006e-06      -5.42935074e-06 
      -3.73892826e-07       2.79002983e-06      -5.42934994e-06 
       1.19402245e-07       2.79002990e-06      -5.42935079e-06 
       3.72757248e-07       2.79003012e-06      -5.42935159e-06 
      -1.27250685e-07       3.15268539e-06      -6.13549586e-06 
      -3.94663567e-07       3.15268514e-06      -6.13549498e-06 
       1.26056590e-07       3.15268524e-06      -6.13549593e-06 
       3.93469473e-07       3.15268549e-06      -6.13549680e-06 
      -1.27250685e-07       3.15268539e-06      -6.13549586e-06 
      -3.94663567e-07       3.15268514e-06      -6.13549498e-06 
       1.26056590e-07       3.15268524e-06      -6.13549593e-06 
       3.93469473e-07       3.15268549e-06      -6.13549680e-06 
      -1.33806796e-07       3.53468325e-06      -6.87938042e-06 
      -4.14940371e-07       3.53468297e-06      -6.87937948e-06 
       1.32553862e-07       3.53468310e-06      -6.87938052e-06 
       4.13687436e-07       3.53468338e-06      -6.87938146e-06 
      -1.33806796e-07       3.53468325e-06      -6.87938042e-06 
      -4.14940371e-07       3.53468297e-06      -6.87937948e-06 
       1.32553862e-07       3.53468310e-06      -6.87938052e-06 
       4.13687436e-07       3.53468338e-06      -6.87938146e-06 
      -1.40206154e-07       3.93555404e-06      -7.66009782e-06 
      -4.34723236e-07       3.93555374e-06      -7.66009681e-06 
       1.38894060e-07       3.93555391e-06      -7.66009796e-06 
       4.33411142e-07       3.93555421e-06      -7.66009897e-06 
      -1.40206154e-07       3.93555404e-06      -7.66009782e-06 
      -4.34723236e-07       3.93555374e-06      -7.66009681e-06 
       1.38894060e-07       3.93555391e-06      -7.66009796e-06 
       4.33411142e-07       3.93555421e-06      -7.66009897e-06 
      -1.46448755e-07       4.35482820e-06      -8.47674145e-06 
      -4.54012156e-07       4.35482787e-06      -8.47674037e-06 
       1.45077193e-07       4.35482808e-06      -8.47674162e-06 
       4.52640594e-07       4.35482841e-06      -8.47674270e-06 
      -1.46448755e-07       4.35482820e-06      -8.47674145e-06 
      -4.54012156e-07       4.35482787e-06      -8.47674037e-06 
       1.45077193e-07       4.35482808e-06      -8.47674162e-06 
       4.52640594e-07       4.35482841e-06      -8.47674270e-06 
      -1.52534596e-07       4.79203616e-06      -9.32840470e-06 
      -4.72807129e-07       4.79203580e-06      -9.32840355e-06 
       1.51103261e-07       4.79203605e-06      -9.32840490e-06 
       4.71375795e-07       4.79203640e-06      -9.32840605e-06 
      -1.52534595e-07       4.79203616e-06      -9.32840470e-06 
      -4.72807129e-07       4.79203580e-06      -9.32840355e-06 
       1.51103262e-07       4.79203605e-06      -9.32840490e-06 
       4.71375796e-07       4.79203640e-06      -9.32840605e-06 
      -1.58462217e-07       5.24671778e-06      -1.02141985e-05 
      -4.91126951e-07       5.24671739e-06      -1.02141973e-05 
       1.56991205e-07       5.24671768e-06      -1.02141987e-05 
       4.89655939e-07       5.24671807e-06      -1.02142000e-05 
      -1.58462217e-07       5.24671778e-06      -1.02141985e-05 
      -4.91126951e-07       5.24671739e-06      -1.02141973e-05 
       1.56991205e-07       5.24671768e-06      -1.02141987e-05 
       4.89655939e-07       5.24671807e-06      -1.02142000e-05 
      -1.64250639e-07       5.71845021e-06      -1.11333036e-05 
      -5.09010550e-07       5.71844980e-06      -1.11333023e-05 
       1.62739516e-07       5.71845014e-06      -1.11333039e-05 
       5.07499428e-07       5.71845055e-06      -1.11333051e-05 
      -1.64250639e-07       5.71845021e-06      -1.11333036e-05 
      -5.09010550e-07       5.71844980e-06      -1.11333023e-05 
       1.62739516e-07       5.71845014e-06      -1.11333039e-05 
       5.07499428e-07       5.71845055e-06      -1.11333051e-05 
      -1.69899856e-07       6.20681983e-06      -1.20849180e-05 
      -5.26457922e-07       6.20681939e-06      -1.20849166e-05 
       1.68348204e-07       6.20681978e-06      -1.20849183e-05 
       5.24906270e-07       6.20682022e-06      -1.20849196e-05 
      -1.69899856e-07       6.20681983e-06      -1.20849180e-05 
      -5.26457922e-07       6.20681939e-06      -1.20849166e-05 
       1.68348204e-07       6.20681978e-06      -1.20849183e-05 
       5.24906270e-07       6.20682022e-06      -1.20849196e-05 
      -1.75409864e-07       6.71141299e-06      -1.30682398e-05 
      -5.43469063e-07       6.71141252e-06      -1.30682383e-05 
       1.73817269e-07       6.71141296e-06      -1.30682401e-05 
       5.41876468e-07       6.71141343e-06      -1.30682415e-05 
      -1.75409864e-07       6.71141299e-06      -1.30682398e-05 
      -5.43469063e-07       6.71141252e-06      -1.30682383e-05 
       1.73817269e-07       6.71141296e-06      -1.30682401e-05 
       5.41876468e-07       6.71141343e-06      -1.30682415e-05 
      -1.80780657e-07       7.23181605e-06      -1.40824670e-05 
      -5.60043965e-07       7.23181555e-06      -1.40824655e-05 
       1.79146720e-07       7.23181604e-06      -1.40824674e-05 
       5.58410028e-07       7.23181654e-06      -1.40824689e-05 
      -1.80780657e-07       7.23181605e-06      -1.40824670e-05 
      -5.60043965e-07       7.23181555e-06      -1.40824655e-05 
       1.79146720e-07       7.23181604e-06      -1.40824674e-05 
       5.58410028e-07       7.23181654e-06      -1.40824689e-05 
      -1.86012231e-07       7.76761538e-06      -1.51267977e-05 
      -5.76182625e-07       7.76761485e-06      -1.51267962e-05 
       1.84336560e-07       7.76761538e-06      -1.51267982e-05 
       5.74506956e-07       7.76761591e-06      -1.51267997e-05 
      -1.86012231e-07       7.76761538e-06      -1.51267977e-05 
      -5.76182625e-07       7.76761485e-06      -1.51267962e-05 
       1.84336560e-07       7.76761538e-06      -1.51267982e-05 
       5.74506956e-07       7.76761591e-06      -1.51267997e-05 
      -1.91104577e-07       8.31839732e-06      -1.62004300e-05 
      -5.91885038e-07       8.31839676e-06      -1.62004284e-05 
       1.89386796e-07       8.31839734e-06      -1.62004305e-05 
       5.90167256e-07       8.31839790e-06      -1.62004321e-05 
      -1.91104577e-07       8.31839732e-06      -1.62004300e-05 
      -5.91885038e-07       8.31839676e-06      -1.62004284e-05 
       1.89386796e-07       8.31839734e-06      -1.62004305e-05 
       5.90167256e-07       8.31839790e-06      -1.62004321e-05 
      -1.96057694e-07       8.88374825e-06      -1.73025618e-05 
      -6.07151196e-07       8.88374766e-06      -1.73025602e-05 
       1.94297432e-07       8.88374829e-06      -1.73025624e-05 
       6.05390935e-07       8.88374887e-06      -1.73025641e-05 
      -1.96057694e-07       8.88374825e-06      -1.73025618e-05 
      -6.07151196e-07       8.88374766e-06      -1.73025602e-05 
       1.94297432e-07       8.88374829e-06      -1.73025624e-05 
       6.05390935e-07       8.88374887e-06      -1.73025641e-05 
      -2.00871575e-07       9.46325451e-06      -1.84323914e-05 
      -6.21981097e-07       9.46325390e-06      -1.84323897e-05 
       1.99068475e-07       9.46325457e-06      -1.84323920e-05 
       6.20177995e-07       9.46325519e-06      -1.84323937e-05 
      -2.00871575e-07       9.46325451e-06      -1.84323914e-05 
      -6.21981097e-07       9.46325390e-06      -1.84323897e-05 
       1.99068475e-07       9.46325457e-06      -1.84323920e-05 
       6.20177995e-07       9.46325519e-06      -1.84323937e-05 
      -2.05546216e-07       1.00565025e-05      -1.95891166e-05 
      -6.36374734e-07       1.00565018e-05      -1.95891148e-05 
       2.03699926e-07       1.00565026e-05      -1.95891173e-05 
       6.34528444e-07       1.00565032e-05      -1.95891191e-05 
      -2.05546216e-07       1.00565025e-05      -1.95891166e-05 
      -6.36374734e-07       1.00565018e-05      -1.95891148e-05 
       2.03699926e-07       1.00565026e-05      -1.95891173e-05 
       6.34528444e-07       1.00565032e-05      -1.95891191e-05 
      -2.10083326e-07       1.06630878e-05      -2.07719529e-05 
      -6.50353876e-07       1.06630872e-05      -2.07719510e-05 
       2.08207278e-07       1.06630879e-05      -2.07719536e-05 
       6.48477828e-07       1.06630886e-05      -2.07719554e-05 
      -2.10083326e-07       1.06630878e-05      -2.07719529e-05 
      -6.50353876e-07       1.06630872e-05      -2.07719510e-05 
       2.08207278e-07       1.06630879e-05      -2.07719536e-05 
       6.48477828e-07       1.06630886e-05      -2.07719554e-05 
      -2.14498957e-07       1.12826434e-05      -2.19801853e-05 
      -6.63954521e-07       1.12826427e-05      -2.19801834e-05 
       2.12592739e-07       1.12826435e-05      -2.19801861e-05 
       6.62048302e-07       1.12826442e-05      -2.19801880e-05 
      -2.14498957e-07       1.12826434e-05      -2.19801853e-05 
      -6.63954521e-07       1.12826427e-05      -2.19801834e-05 
       2.12592739e-07       1.12826435e-05      -2.19801861e-05 
       6.62048302e-07       1.12826442e-05      -2.19801880e-05 
      -2.18793105e-07       1.19148112e-05      -2.32131172e-05 
      -6.77176661e-07       1.19148105e-05      -2.32131152e-05 
       2.16856316e-07       1.19148114e-05      -2.32131180e-05 
       6.75239872e-07       1.19148121e-05      -2.32131200e-05 
      -2.18793105e-07       1.19148112e-05      -2.32131172e-05 
      -6.77176661e-07       1.19148105e-05      -2.32131152e-05 
       2.16856316e-07       1.19148114e-05      -2.32131180e-05 
       6.75239872e-07       1.19148121e-05      -2.32131200e-05 
      -2.22965762e-07       1.25592334e-05      -2.44700516e-05 
      -6.90020292e-07       1.25592327e-05      -2.44700496e-05 
       2.20998011e-07       1.25592336e-05      -2.44700525e-05 
       6.88052542e-07       1.25592343e-05      -2.44700545e-05 
      -2.22965762e-07       1.25592334e-05      -2.44700516e-05 
      -6.90020292e-07       1.25592327e-05      -2.44700496e-05 
       2.20998011e-07       1.25592336e-05      -2.44700525e-05 
       6.88052542e-07       1.25592343e-05      -2.44700545e-05 
      -2.27016924e-07       1.32155520e-05      -2.57502918e-05 
      -7.02485410e-07       1.32155512e-05      -2.57502897e-05 
       2.25017832e-07       1.32155522e-05      -2.57502927e-05 
       7.00486318e-07       1.32155530e-05      -2.57502948e-05 
      -2.27016924e-07       1.32155520e-05      -2.57502918e-05 
      -7.02485410e-07       1.32155512e-05      -2.57502897e-05 
       2.25017832e-07       1.32155522e-05      -2.57502927e-05 
       7.00486318e-07       1.32155530e-05      -2.57502948e-05 
      -2.30946585e-07       1.38834091e-05      -2.70531407e-05 
      -7.14572008e-07       1.38834083e-05      -2.70531386e-05 
       2.28915784e-07       1.38834093e-05      -2.70531417e-05 
       7.12541206e-07       1.38834101e-05      -2.70531438e-05 
      -2.30946585e-07       1.38834091e-05      -2.70531407e-05 
      -7.14572008e-07       1.38834083e-05      -2.70531386e-05 
       2.28915784e-07       1.38834093e-05      -2.70531417e-05 
       7.12541206e-07       1.38834101e-05      -2.70531438e-05 
      -2.34754740e-07       1.45624468e-05      -2.83779017e-05 
      -7.26280080e-07       1.45624459e-05      -2.83778995e-05 
       2.32691873e-07       1.45624470e-05      -2.83779027e-05 
       7.24217212e-07       1.45624478e-05      -2.83779049e-05 
      -2.34754740e-07       1.45624468e-05      -2.83779017e-05 
      -7.26280080e-07       1.45624459e-05      -2.83778995e-05 
       2.32691873e-07       1.45624470e-05      -2.83779027e-05 
       7.24217212e-07       1.45624478e-05      -2.83779049e-05 
      -2.38441382e-07       1.52523071e-05      -2.97238778e-05 
      -7.37609620e-07       1.52523062e-05      -2.97238756e-05 
       2.36346106e-07       1.52523073e-05      -2.97238789e-05 
       7.35514344e-07       1.52523082e-05      -2.97238811e-05 
      -2.38441382e-07       1.52523071e-05      -2.97238778e-05 
      -7.37609620e-07       1.52523062e-05      -2.97238756e-05 