# vtk DataFile Version 2.0
./output/onsasExample_BladeCantileverBeamNoPitch_windVel3DDynamic 3D/onsasExample_BladeCantileverBeamNoPitch_windVel3DDynamic 3D_0006.vtk
ASCII
DATASET UNSTRUCTURED_GRID

POINTS 800 float
       6.796924e-24      -7.180703e-02      -7.180703e-02 
       7.743451e-25       7.180703e-02      -7.180703e-02 
      -6.796924e-24       7.180703e-02       7.180703e-02 
      -7.743451e-25      -7.180703e-02       7.180703e-02 
       2.000000e-01      -7.180702e-02      -7.180706e-02 
       2.000000e-01       7.180705e-02      -7.180706e-02 
       2.000000e-01       7.180705e-02       7.180701e-02 
       2.000000e-01      -7.180702e-02       7.180701e-02 
       2.000000e-01      -7.180702e-02      -7.180706e-02 
       2.000000e-01       7.180705e-02      -7.180706e-02 
       2.000000e-01       7.180705e-02       7.180701e-02 
       2.000000e-01      -7.180702e-02       7.180701e-02 
       4.000000e-01      -7.180698e-02      -7.180713e-02 
       3.999999e-01       7.180709e-02      -7.180713e-02 
       4.000000e-01       7.180709e-02       7.180693e-02 
       4.000001e-01      -7.180698e-02       7.180693e-02 
       4.000000e-01      -7.180698e-02      -7.180713e-02 
       3.999999e-01       7.180709e-02      -7.180713e-02 
       4.000000e-01       7.180709e-02       7.180693e-02 
       4.000001e-01      -7.180698e-02       7.180693e-02 
       6.000000e-01      -7.180691e-02      -7.180726e-02 
       5.999999e-01       7.180716e-02      -7.180726e-02 
       6.000000e-01       7.180716e-02       7.180681e-02 
       6.000001e-01      -7.180691e-02       7.180681e-02 
       6.000000e-01      -7.180691e-02      -7.180726e-02 
       5.999999e-01       7.180716e-02      -7.180726e-02 
       6.000000e-01       7.180716e-02       7.180681e-02 
       6.000001e-01      -7.180691e-02       7.180681e-02 
       8.000000e-01      -7.180682e-02      -7.180744e-02 
       7.999999e-01       7.180725e-02      -7.180744e-02 
       8.000000e-01       7.180725e-02       7.180663e-02 
       8.000001e-01      -7.180682e-02       7.180663e-02 
       8.000000e-01      -7.180682e-02      -7.180744e-02 
       7.999999e-01       7.180725e-02      -7.180744e-02 
       8.000000e-01       7.180725e-02       7.180663e-02 
       8.000001e-01      -7.180682e-02       7.180663e-02 
       1.000000e+00      -7.180670e-02      -7.180766e-02 
       9.999999e-01       7.180737e-02      -7.180766e-02 
       1.000000e+00       7.180737e-02       7.180641e-02 
       1.000000e+00      -7.180670e-02       7.180641e-02 
       1.000000e+00      -7.180670e-02      -7.180766e-02 
       9.999999e-01       7.180737e-02      -7.180766e-02 
       1.000000e+00       7.180737e-02       7.180641e-02 
       1.000000e+00      -7.180670e-02       7.180641e-02 
       1.200000e+00      -7.180655e-02      -7.180793e-02 
       1.200000e+00       7.180751e-02      -7.180793e-02 
       1.200000e+00       7.180751e-02       7.180614e-02 
       1.200000e+00      -7.180655e-02       7.180614e-02 
       1.200000e+00      -7.180655e-02      -7.180793e-02 
       1.200000e+00       7.180751e-02      -7.180793e-02 
       1.200000e+00       7.180751e-02       7.180614e-02 
       1.200000e+00      -7.180655e-02       7.180614e-02 
       1.400000e+00      -7.180639e-02      -7.180824e-02 
       1.400000e+00       7.180768e-02      -7.180824e-02 
       1.400000e+00       7.180768e-02       7.180583e-02 
       1.400000e+00      -7.180639e-02       7.180583e-02 
       1.400000e+00      -7.180639e-02      -7.180824e-02 
       1.400000e+00       7.180768e-02      -7.180824e-02 
       1.400000e+00       7.180768e-02       7.180583e-02 
       1.400000e+00      -7.180639e-02       7.180583e-02 
       1.600000e+00      -7.180619e-02      -7.180860e-02 
       1.600000e+00       7.180787e-02      -7.180860e-02 
       1.600000e+00       7.180787e-02       7.180547e-02 
       1.600000e+00      -7.180619e-02       7.180547e-02 
       1.600000e+00      -7.180619e-02      -7.180860e-02 
       1.600000e+00       7.180787e-02      -7.180860e-02 
       1.600000e+00       7.180787e-02       7.180547e-02 
       1.600000e+00      -7.180619e-02       7.180547e-02 
       1.800000e+00      -7.180598e-02      -7.180900e-02 
       1.800000e+00       7.180809e-02      -7.180900e-02 
       1.800000e+00       7.180809e-02       7.180506e-02 
       1.800000e+00      -7.180598e-02       7.180506e-02 
       1.800000e+00      -7.180598e-02      -7.180900e-02 
       1.800000e+00       7.180809e-02      -7.180900e-02 
       1.800000e+00       7.180809e-02       7.180506e-02 
       1.800000e+00      -7.180598e-02       7.180506e-02 
       2.000000e+00      -7.180574e-02      -7.180945e-02 
       2.000000e+00       7.180833e-02      -7.180945e-02 
       2.000000e+00       7.180833e-02       7.180462e-02 
       2.000000e+00      -7.180574e-02       7.180462e-02 
       2.000000e+00      -7.180574e-02      -7.180945e-02 
       2.000000e+00       7.180833e-02      -7.180945e-02 
       2.000000e+00       7.180833e-02       7.180462e-02 
       2.000000e+00      -7.180574e-02       7.180462e-02 
       2.200000e+00      -7.180548e-02      -7.180993e-02 
       2.200000e+00       7.180859e-02      -7.180993e-02 
       2.200000e+00       7.180859e-02       7.180413e-02 
       2.200000e+00      -7.180548e-02       7.180413e-02 
       2.200000e+00      -7.180548e-02      -7.180993e-02 
       2.200000e+00       7.180859e-02      -7.180993e-02 
       2.200000e+00       7.180859e-02       7.180413e-02 
       2.200000e+00      -7.180548e-02       7.180413e-02 
       2.400000e+00      -7.180519e-02      -7.181046e-02 
       2.400000e+00       7.180887e-02      -7.181046e-02 
       2.400000e+00       7.180887e-02       7.180361e-02 
       2.400000e+00      -7.180519e-02       7.180361e-02 
       2.400000e+00      -7.180519e-02      -7.181046e-02 
       2.400000e+00       7.180887e-02      -7.181046e-02 
       2.400000e+00       7.180887e-02       7.180361e-02 
       2.400000e+00      -7.180519e-02       7.180361e-02 
       2.600000e+00      -7.180489e-02      -7.181103e-02 
       2.600000e+00       7.180918e-02      -7.181103e-02 
       2.600000e+00       7.180918e-02       7.180304e-02 
       2.600000e+00      -7.180489e-02       7.180304e-02 
       2.600000e+00      -7.180489e-02      -7.181103e-02 
       2.600000e+00       7.180918e-02      -7.181103e-02 
       2.600000e+00       7.180918e-02       7.180304e-02 
       2.600000e+00      -7.180489e-02       7.180304e-02 
       2.800000e+00      -7.180456e-02      -7.181163e-02 
       2.800000e+00       7.180950e-02      -7.181163e-02 
       2.800000e+00       7.180950e-02       7.180243e-02 
       2.800000e+00      -7.180456e-02       7.180243e-02 
       2.800000e+00      -7.180456e-02      -7.181163e-02 
       2.800000e+00       7.180950e-02      -7.181163e-02 
       2.800000e+00       7.180950e-02       7.180243e-02 
       2.800000e+00      -7.180456e-02       7.180243e-02 
       3.000000e+00      -7.180422e-02      -7.181228e-02 
       3.000000e+00       7.180985e-02      -7.181228e-02 
       3.000000e+00       7.180985e-02       7.180179e-02 
       3.000000e+00      -7.180422e-02       7.180179e-02 
       3.000000e+00      -7.180422e-02      -7.181228e-02 
       3.000000e+00       7.180985e-02      -7.181228e-02 
       3.000000e+00       7.180985e-02       7.180179e-02 
       3.000000e+00      -7.180422e-02       7.180179e-02 
       3.200000e+00      -7.180385e-02      -7.181296e-02 
       3.200000e+00       7.181022e-02      -7.181296e-02 
       3.200000e+00       7.181022e-02       7.180111e-02 
       3.200000e+00      -7.180385e-02       7.180111e-02 
       3.200000e+00      -7.180385e-02      -7.181296e-02 
       3.200000e+00       7.181022e-02      -7.181296e-02 
       3.200000e+00       7.181022e-02       7.180111e-02 
       3.200000e+00      -7.180385e-02       7.180111e-02 
       3.400000e+00      -7.180346e-02      -7.181368e-02 
       3.400000e+00       7.181060e-02      -7.181368e-02 
       3.400000e+00       7.181060e-02       7.180039e-02 
       3.400000e+00      -7.180346e-02       7.180039e-02 
       3.400000e+00      -7.180346e-02      -7.181368e-02 
       3.400000e+00       7.181060e-02      -7.181368e-02 
       3.400000e+00       7.181060e-02       7.180039e-02 
       3.400000e+00      -7.180346e-02       7.180039e-02 
       3.600000e+00      -7.180306e-02      -7.181443e-02 
       3.600000e+00       7.181101e-02      -7.181443e-02 
       3.600000e+00       7.181101e-02       7.179963e-02 
       3.600000e+00      -7.180306e-02       7.179963e-02 
       3.600000e+00      -7.180306e-02      -7.181443e-02 
       3.600000e+00       7.181101e-02      -7.181443e-02 
       3.600000e+00       7.181101e-02       7.179963e-02 
       3.600000e+00      -7.180306e-02       7.179963e-02 
       3.800000e+00      -7.180264e-02      -7.181522e-02 
       3.800000e+00       7.181143e-02      -7.181522e-02 
       3.800000e+00       7.181143e-02       7.179885e-02 
       3.800000e+00      -7.180264e-02       7.179885e-02 
       3.800000e+00      -7.180264e-02      -7.181522e-02 
       3.800000e+00       7.181143e-02      -7.181522e-02 
       3.800000e+00       7.181143e-02       7.179885e-02 
       3.800000e+00      -7.180264e-02       7.179885e-02 
       4.000000e+00      -7.180219e-02      -7.181604e-02 
       4.000000e+00       7.181187e-02      -7.181604e-02 
       4.000000e+00       7.181187e-02       7.179802e-02 
       4.000000e+00      -7.180219e-02       7.179802e-02 
       4.000000e+00      -7.180219e-02      -7.181604e-02 
       4.000000e+00       7.181187e-02      -7.181604e-02 
       4.000000e+00       7.181187e-02       7.179802e-02 
       4.000000e+00      -7.180219e-02       7.179802e-02 
       4.200000e+00      -7.180174e-02      -7.181690e-02 
[...]
POINT_DATA       800 
VECTORS Displacements float
       6.79692423e-24      -1.38777878e-17       0.00000000e+00 
       7.74345090e-25       1.38777878e-17      -1.38777878e-17 
      -6.79692423e-24       1.38777878e-17       0.00000000e+00 
      -7.74345090e-25      -1.38777878e-17       1.38777878e-17 
      -8.54832002e-09       1.37429262e-08      -2.56304975e-08 
      -2.82219781e-08       1.37429249e-08      -2.56304671e-08 
       8.46781911e-09       1.37428995e-08      -2.56304718e-08 
       2.81414772e-08       1.37429008e-08      -2.56305021e-08 
      -8.54832002e-09       1.37429262e-08      -2.56304975e-08 
      -2.82219781e-08       1.37429249e-08      -2.56304671e-08 
       8.46781911e-09       1.37428995e-08      -2.56304718e-08 
       2.81414772e-08       1.37429008e-08      -2.56305021e-08 
      -1.69284604e-08       5.46201910e-08      -1.01858049e-07 
      -5.58971889e-08       5.46201857e-08      -1.01857984e-07 
       1.67673012e-08       5.46201398e-08      -1.01858002e-07 
       5.57360298e-08       5.46201451e-08      -1.01858068e-07 
      -1.69284604e-08       5.46201910e-08      -1.01858049e-07 
      -5.58971889e-08       5.46201857e-08      -1.01857984e-07 
       1.67673012e-08       5.46201398e-08      -1.01858002e-07 
       5.57360298e-08       5.46201451e-08      -1.01858068e-07 
      -2.51404194e-08       1.22104565e-07      -2.27686786e-07 
      -8.30256310e-08       1.22104554e-07      -2.27686681e-07 
       2.48984479e-08       1.22104492e-07      -2.27686722e-07 
       8.27836595e-08       1.22104504e-07      -2.27686827e-07 
      -2.51404194e-08       1.22104565e-07      -2.27686786e-07 
      -8.30256310e-08       1.22104554e-07      -2.27686681e-07 
       2.48984479e-08       1.22104492e-07      -2.27686722e-07 
       8.27836595e-08       1.22104504e-07      -2.27686827e-07 
      -3.31841955e-08       2.15668821e-07      -4.02120839e-07 
      -1.09607303e-07       2.15668800e-07      -4.02120690e-07 
       3.28612607e-08       2.15668727e-07      -4.02120761e-07 
       1.09284368e-07       2.15668747e-07      -4.02120910e-07 
      -3.31841955e-08       2.15668821e-07      -4.02120839e-07 
      -1.09607303e-07       2.15668800e-07      -4.02120690e-07 
       3.28612607e-08       2.15668727e-07      -4.02120761e-07 
       1.09284368e-07       2.15668747e-07      -4.02120910e-07 
      -4.10597873e-08       3.34785728e-07      -6.24164339e-07 
      -1.35642203e-07       3.34785697e-07      -6.24164142e-07 
       4.06557410e-08       3.34785615e-07      -6.24164250e-07 
       1.35238156e-07       3.34785647e-07      -6.24164447e-07 
      -4.10597873e-08       3.34785728e-07      -6.24164339e-07 
      -1.35642203e-07       3.34785697e-07      -6.24164142e-07 
       4.06557410e-08       3.34785615e-07      -6.24164250e-07 
       1.35238156e-07       3.34785647e-07      -6.24164447e-07 
      -4.87671932e-08       4.78928058e-07      -8.92821416e-07 
      -1.61130329e-07       4.78928014e-07      -8.92821167e-07 
       4.82818905e-08       4.78927929e-07      -8.92821320e-07 
       1.60645027e-07       4.78927973e-07      -8.92821569e-07 
      -4.87671932e-08       4.78928058e-07      -8.92821416e-07 
      -1.61130329e-07       4.78928014e-07      -8.92821167e-07 
       4.82818905e-08       4.78927929e-07      -8.92821320e-07 
       1.60645027e-07       4.78927973e-07      -8.92821569e-07 
      -5.63064120e-08       6.47568582e-07      -1.20709620e-06 
      -1.86071681e-07       6.47568523e-07      -1.20709590e-06 
       5.57397104e-08       6.47568438e-07      -1.20709610e-06 
       1.85504980e-07       6.47568496e-07      -1.20709641e-06 
      -5.63064120e-08       6.47568582e-07      -1.20709620e-06 
      -1.86071681e-07       6.47568523e-07      -1.20709590e-06 
       5.57397104e-08       6.47568438e-07      -1.20709610e-06 
       1.85504980e-07       6.47568496e-07      -1.20709641e-06 
      -6.36774413e-08       8.40180071e-07      -1.56599283e-06 
      -2.10466256e-07       8.40179996e-07      -1.56599246e-06 
       6.30292032e-08       8.40179913e-07      -1.56599272e-06 
       2.09818018e-07       8.40179988e-07      -1.56599309e-06 
      -6.36774413e-08       8.40180071e-07      -1.56599283e-06 
      -2.10466256e-07       8.40179996e-07      -1.56599246e-06 
       6.30292032e-08       8.40179913e-07      -1.56599272e-06 
       2.09818018e-07       8.40179988e-07      -1.56599309e-06 
      -7.08802803e-08       1.05623530e-06      -1.96851542e-06 
      -2.34314053e-07       1.05623520e-06      -1.96851500e-06 
       7.01503697e-08       1.05623513e-06      -1.96851532e-06 
       2.33584142e-07       1.05623522e-06      -1.96851574e-06 
      -7.08802803e-08       1.05623530e-06      -1.96851542e-06 
      -2.34314053e-07       1.05623520e-06      -1.96851500e-06 
       7.01503697e-08       1.05623513e-06      -1.96851532e-06 
       2.33584142e-07       1.05623522e-06      -1.96851574e-06 
      -7.79149274e-08       1.29520703e-06      -2.41366812e-06 
      -2.57615071e-07       1.29520692e-06      -2.41366763e-06 
       7.71032114e-08       1.29520685e-06      -2.41366802e-06 
       2.56803355e-07       1.29520696e-06      -2.41366851e-06 
      -7.79149272e-08       1.29520703e-06      -2.41366812e-06 
      -2.57615071e-07       1.29520692e-06      -2.41366763e-06 
       7.71032114e-08       1.29520685e-06      -2.41366802e-06 
       2.56803355e-07       1.29520696e-06      -2.41366851e-06 
      -8.47765413e-08       1.55657732e-06      -2.90047320e-06 
      -2.80384466e-07       1.55657719e-06      -2.90047266e-06 
       8.39115843e-08       1.55657714e-06      -2.90047312e-06 
       2.79519509e-07       1.55657727e-06      -2.90047366e-06 
      -8.47765413e-08       1.55657732e-06      -2.90047320e-06 
      -2.80384466e-07       1.55657719e-06      -2.90047266e-06 
       8.39115843e-08       1.55657714e-06      -2.90047312e-06 
       2.79519509e-07       1.55657727e-06      -2.90047366e-06 
      -9.14888703e-08       1.83986534e-06      -3.42802499e-06 
      -3.02665955e-07       1.83986519e-06      -3.42802439e-06 
       9.05703268e-08       1.83986516e-06      -3.42802493e-06 
       3.01747412e-07       1.83986532e-06      -3.42802553e-06 
      -9.14888703e-08       1.83986534e-06      -3.42802499e-06 
      -3.02665955e-07       1.83986519e-06      -3.42802439e-06 
       9.05703268e-08       1.83986516e-06      -3.42802493e-06 
       3.01747412e-07       1.83986532e-06      -3.42802553e-06 
      -9.80519101e-08       2.14459952e-06      -3.99543563e-06 
      -3.24459534e-07       2.14459934e-06      -3.99543498e-06 
       9.70794409e-08       2.14459935e-06      -3.99543559e-06 
       3.23487065e-07       2.14459952e-06      -3.99543625e-06 
      -9.80519101e-08       2.14459952e-06      -3.99543563e-06 
      -3.24459534e-07       2.14459934e-06      -3.99543498e-06 
       9.70794409e-08       2.14459935e-06      -3.99543559e-06 
       3.23487065e-07       2.14459952e-06      -3.99543625e-06 
      -1.04465657e-07       2.47030828e-06      -4.60181728e-06 
      -3.45765198e-07       2.47030808e-06      -4.60181656e-06 
       1.03438932e-07       2.47030811e-06      -4.60181727e-06 
       3.44738472e-07       2.47030832e-06      -4.60181799e-06 
      -1.04465657e-07       2.47030828e-06      -4.60181728e-06 
      -3.45765198e-07       2.47030808e-06      -4.60181656e-06 
       1.03438932e-07       2.47030811e-06      -4.60181727e-06 
       3.44738472e-07       2.47030832e-06      -4.60181799e-06 
      -1.10730110e-07       2.81652006e-06      -5.24628209e-06 
      -3.66582946e-07       2.81651983e-06      -5.24628131e-06 
       1.09648802e-07       2.81651989e-06      -5.24628210e-06 
       3.65501638e-07       2.81652012e-06      -5.24628288e-06 
      -1.10730110e-07       2.81652006e-06      -5.24628209e-06 
      -3.66582946e-07       2.81651983e-06      -5.24628131e-06 
       1.09648802e-07       2.81651989e-06      -5.24628210e-06 
       3.65501638e-07       2.81652012e-06      -5.24628288e-06 
      -1.16845261e-07       3.18276327e-06      -5.92794221e-06 
      -3.86912771e-07       3.18276302e-06      -5.92794136e-06 
       1.15709056e-07       3.18276312e-06      -5.92794224e-06 
       3.85776566e-07       3.18276337e-06      -5.92794309e-06 
      -1.16845261e-07       3.18276327e-06      -5.92794221e-06 
      -3.86912771e-07       3.18276302e-06      -5.92794136e-06 
       1.15709056e-07       3.18276312e-06      -5.92794224e-06 
       3.85776566e-07       3.18276337e-06      -5.92794309e-06 
      -1.22811108e-07       3.56856636e-06      -6.64590979e-06 
      -4.06754671e-07       3.56856608e-06      -6.64590888e-06 
       1.21619697e-07       3.56856622e-06      -6.64590985e-06 
       4.05563260e-07       3.56856650e-06      -6.64591076e-06 
      -1.22811108e-07       3.56856636e-06      -6.64590979e-06 
      -4.06754671e-07       3.56856608e-06      -6.64590888e-06 
       1.21619697e-07       3.56856622e-06      -6.64590985e-06 
       4.05563260e-07       3.56856650e-06      -6.64591076e-06 
      -1.28627648e-07       3.97345775e-06      -7.39929698e-06 
      -4.26108642e-07       3.97345745e-06      -7.39929600e-06 
       1.27380730e-07       3.97345761e-06      -7.39929707e-06 
       4.24861724e-07       3.97345792e-06      -7.39929804e-06 
      -1.28627648e-07       3.97345775e-06      -7.39929698e-06 
      -4.26108642e-07       3.97345745e-06      -7.39929600e-06 
       1.27380730e-07       3.97345761e-06      -7.39929707e-06 
       4.24861724e-07       3.97345792e-06      -7.39929804e-06 
      -1.34294876e-07       4.39696587e-06      -8.18721593e-06 
      -4.44974680e-07       4.39696554e-06      -8.18721488e-06 
       1.32992158e-07       4.39696574e-06      -8.18721605e-06 
       4.43671962e-07       4.39696608e-06      -8.18721709e-06 
      -1.34294876e-07       4.39696587e-06      -8.18721593e-06 
      -4.44974680e-07       4.39696554e-06      -8.18721488e-06 
       1.32992158e-07       4.39696574e-06      -8.18721605e-06 
       4.43671962e-07       4.39696608e-06      -8.18721709e-06 
      -1.39812790e-07       4.83861915e-06      -9.00877880e-06 
      -4.63352782e-07       4.83861878e-06      -9.00877768e-06 
       1.38453984e-07       4.83861903e-06      -9.00877894e-06 
       4.61993976e-07       4.83861939e-06      -9.00878006e-06 
      -1.39812790e-07       4.83861915e-06      -9.00877880e-06 
      -4.63352782e-07       4.83861878e-06      -9.00877768e-06 
       1.38453984e-07       4.83861903e-06      -9.00877894e-06 
       4.61993976e-07       4.83861939e-06      -9.00878006e-06 
      -1.45180741e-07       5.29795529e-06      -9.86311583e-06 
      -4.81262287e-07       5.29795489e-06      -9.86311465e-06 
       1.43785733e-07       5.29795518e-06      -9.86311601e-06 
       4.79867277e-07       5.29795557e-06      -9.86311719e-06 
      -1.45180741e-07       5.29795529e-06      -9.86311583e-06 
      -4.81262287e-07       5.29795489e-06      -9.86311465e-06 
       1.43785733e-07       5.29795518e-06      -9.86311601e-06 
       4.79867277e-07       5.29795557e-06      -9.86311719e-06 
      -1.50418063e-07       5.77454909e-06      -1.07494289e-05 
      -4.98742484e-07       5.77454866e-06      -1.07494277e-05 
       1.48986443e-07       5.77454900e-06      -1.07494292e-05 
       4.97310864e-07       5.77454942e-06      -1.07494304e-05 
      -1.50418063e-07       5.77454909e-06      -1.07494289e-05 
      -4.98742484e-07       5.77454866e-06      -1.07494277e-05 
       1.48986443e-07       5.77454900e-06      -1.07494292e-05 
       4.97310864e-07       5.77454942e-06      -1.07494304e-05 
      -1.55524748e-07       6.26798460e-06      -1.16669378e-05 
      -5.15793366e-07       6.26798415e-06      -1.16669365e-05 
       1.54056121e-07       6.26798453e-06      -1.16669381e-05 
       5.14324739e-07       6.26798498e-06      -1.16669394e-05 
      -1.55524748e-07       6.26798460e-06      -1.16669378e-05 
      -5.15793366e-07       6.26798415e-06      -1.16669365e-05 
       1.54056121e-07       6.26798453e-06      -1.16669381e-05 
       5.14324739e-07       6.26798498e-06      -1.16669394e-05 
      -1.60500794e-07       6.77784589e-06      -1.26148620e-05 
      -5.32414933e-07       6.77784540e-06      -1.26148607e-05 
       1.58994769e-07       6.77784583e-06      -1.26148623e-05 
       5.30908908e-07       6.77784631e-06      -1.26148637e-05 
      -1.60500794e-07       6.77784589e-06      -1.26148620e-05 
      -5.32414933e-07       6.77784540e-06      -1.26148607e-05 
       1.58994769e-07       6.77784583e-06      -1.26148623e-05 
       5.30908908e-07       6.77784631e-06      -1.26148637e-05 
      -1.65346195e-07       7.30371700e-06      -1.35924213e-05 
      -5.48607177e-07       7.30371649e-06      -1.35924199e-05 
       1.63802394e-07       7.30371696e-06      -1.35924217e-05 
       5.47063376e-07       7.30371747e-06      -1.35924231e-05 
      -1.65346195e-07       7.30371700e-06      -1.35924213e-05 
      -5.48607177e-07       7.30371649e-06      -1.35924199e-05 
       1.63802394e-07       7.30371696e-06      -1.35924217e-05 
       5.47063376e-07       7.30371747e-06      -1.35924231e-05 
      -1.70060946e-07       7.84518199e-06      -1.45988353e-05 
      -5.64370093e-07       7.84518145e-06      -1.45988338e-05 
       1.68479001e-07       7.84518197e-06      -1.45988357e-05 
       5.62788149e-07       7.84518251e-06      -1.45988372e-05 
      -1.70060946e-07       7.84518199e-06      -1.45988353e-05 
      -5.64370093e-07       7.84518145e-06      -1.45988338e-05 
       1.68479001e-07       7.84518197e-06      -1.45988357e-05 
       5.62788149e-07       7.84518251e-06      -1.45988372e-05 
      -1.74645042e-07       8.40182493e-06      -1.56333236e-05 
      -5.79703676e-07       8.40182435e-06      -1.56333221e-05 
       1.73024595e-07       8.40182492e-06      -1.56333240e-05 
       5.78083229e-07       8.40182549e-06      -1.56333256e-05 
      -1.74645042e-07       8.40182493e-06      -1.56333236e-05 
      -5.79703676e-07       8.40182435e-06      -1.56333221e-05 
       1.73024595e-07       8.40182492e-06      -1.56333240e-05 
       5.78083229e-07       8.40182549e-06      -1.56333256e-05 
      -1.79098476e-07       8.97322985e-06      -1.66951059e-05 
      -5.94607922e-07       8.97322925e-06      -1.66951043e-05 
       1.77439181e-07       8.97322986e-06      -1.66951064e-05 
       5.92948625e-07       8.97323047e-06      -1.66951080e-05 
      -1.79098476e-07       8.97322985e-06      -1.66951059e-05 
      -5.94607922e-07       8.97322925e-06      -1.66951043e-05 
       1.77439181e-07       8.97322986e-06      -1.66951064e-05 
       5.92948625e-07       8.97323047e-06      -1.66951080e-05 
      -1.83421247e-07       9.55898082e-06      -1.77834019e-05 
      -6.09082825e-07       9.55898019e-06      -1.77834002e-05 
       1.81722762e-07       9.55898085e-06      -1.77834024e-05 
       6.07384340e-07       9.55898149e-06      -1.77834040e-05 
      -1.83421247e-07       9.55898082e-06      -1.77834019e-05 
      -6.09082825e-07       9.55898019e-06      -1.77834002e-05 
       1.81722762e-07       9.55898085e-06      -1.77834024e-05 
       6.07384340e-07       9.55898149e-06      -1.77834040e-05 
      -1.87613348e-07       1.01586619e-05      -1.88974311e-05 
      -6.23128381e-07       1.01586612e-05      -1.88974293e-05 
       1.85875345e-07       1.01586619e-05      -1.88974316e-05 
       6.21390378e-07       1.01586626e-05      -1.88974334e-05 
      -1.87613348e-07       1.01586619e-05      -1.88974311e-05 
      -6.23128382e-07       1.01586612e-05      -1.88974293e-05 
       1.85875344e-07       1.01586619e-05      -1.88974316e-05 
       6.21390378e-07       1.01586626e-05      -1.88974334e-05 
      -1.91677363e-07       1.07718664e-05      -2.00364313e-05 
      -6.36767148e-07       1.07718657e-05      -2.00364295e-05 
       1.89913048e-07       1.07718665e-05      -2.00364319e-05 
       6.35002833e-07       1.07718672e-05      -2.00364337e-05 
      -1.91677363e-07       1.07718664e-05      -2.00364313e-05 
      -6.36767148e-07       1.07718657e-05      -2.00364295e-05 
       1.89913048e-07       1.07718665e-05      -2.00364319e-05 
       6.35002833e-07       1.07718672e-05      -2.00364337e-05 
      -1.95629163e-07       1.13982248e-05      -2.11997114e-05 
      -6.50034947e-07       1.13982240e-05      -2.11997095e-05 
       1.93838146e-07       1.13982248e-05      -2.11997120e-05 
       6.48243931e-07       1.13982256e-05      -2.11997139e-05 
      -1.95629163e-07       1.13982248e-05      -2.11997114e-05 
      -6.50034947e-07       1.13982240e-05      -2.11997095e-05 
       1.93838146e-07       1.13982248e-05      -2.11997120e-05 
       6.48243931e-07       1.13982256e-05      -2.11997139e-05 
      -1.99468740e-07       1.20373766e-05      -2.23865980e-05 
      -6.62931769e-07       1.20373758e-05      -2.23865960e-05 
       1.97650648e-07       1.20373767e-05      -2.23865986e-05 
       6.61113677e-07       1.20373774e-05      -2.23866005e-05 
      -1.99468740e-07       1.20373766e-05      -2.23865980e-05 
      -6.62931769e-07       1.20373758e-05      -2.23865960e-05 
       1.97650648e-07       1.20373767e-05      -2.23865986e-05 
       6.61113677e-07       1.20373774e-05      -2.23866005e-05 
      -2.03196092e-07       1.26889615e-05      -2.35964176e-05 
      -6.75457613e-07       1.26889608e-05      -2.35964156e-05 
       2.01350554e-07       1.26889617e-05      -2.35964183e-05 
       6.73612074e-07       1.26889624e-05      -2.35964203e-05 
      -2.03196092e-07       1.26889615e-05      -2.35964176e-05 
      -6.75457613e-07       1.26889608e-05      -2.35964156e-05 
       2.01350554e-07       1.26889617e-05      -2.35964183e-05 
       6.73612074e-07       1.26889624e-05      -2.35964203e-05 
      -2.06811213e-07       1.33526193e-05      -2.48284968e-05 
      -6.87612471e-07       1.33526185e-05      -2.48284948e-05 
       2.04937872e-07       1.33526194e-05      -2.48284975e-05 
       6.85739129e-07       1.33526202e-05      -2.48284996e-05 
      -2.06811213e-07       1.33526193e-05      -2.48284968e-05 
      -6.87612471e-07       1.33526185e-05      -2.48284948e-05 
       2.04937872e-07       1.33526194e-05      -2.48284975e-05 
       6.85739129e-07       1.33526202e-05      -2.48284996e-05 
      -2.10314098e-07       1.40279895e-05      -2.60821622e-05 
      -6.99396339e-07       1.40279887e-05      -2.60821601e-05 
       2.08412607e-07       1.40279897e-05      -2.60821630e-05 
       6.97494848e-07       1.40279905e-05      -2.60821651e-05 
      -2.10314098e-07       1.40279895e-05      -2.60821622e-05 
      -6.99396339e-07       1.40279887e-05      -2.60821601e-05 
       2.08412607e-07       1.40279897e-05      -2.60821630e-05 
       6.97494848e-07       1.40279905e-05      -2.60821651e-05 
      -2.13704739e-07       1.47147118e-05      -2.73567403e-05 
      -7.10809211e-07       1.47147109e-05      -2.73567382e-05 
       2.11774765e-07       1.47147120e-05      -2.73567412e-05 
       7.08879235e-07       1.47147129e-05      -2.73567433e-05 
      -2.13704739e-07       1.47147118e-05      -2.73567403e-05 
      -7.10809211e-07       1.47147109e-05      -2.73567382e-05 
       2.11774765e-07       1.47147120e-05      -2.73567412e-05 
       7.08879235e-07       1.47147129e-05      -2.73567433e-05 
      -2.16983132e-07       1.54124259e-05      -2.86515578e-05 
      -7.21851079e-07       1.54124250e-05      -2.86515556e-05 
       2.15024351e-07       1.54124261e-05      -2.86515586e-05 
       7.19892299e-07       1.54124270e-05      -2.86515608e-05 
      -2.16983132e-07       1.54124259e-05      -2.86515578e-05 
      -7.21851079e-07       1.54124250e-05      -2.86515556e-05 