# vtk DataFile Version 2.0
./output/onsasExample_BladeCantileverBeamNoPitch_windVel3DDynamic 3D/onsasExample_BladeCantileverBeamNoPitch_windVel3DDynamic 3D_0049.vtk
ASCII
DATASET UNSTRUCTURED_GRID

POINTS 800 float
       5.232675e-24      -7.180703e-02      -7.180703e-02 
      -2.281158e-24       7.180703e-02      -7.180703e-02 
      -5.232675e-24       7.180703e-02       7.180703e-02 
       2.281158e-24      -7.180703e-02       7.180703e-02 
       2.000000e-01      -7.180702e-02      -7.180706e-02 
       2.000000e-01       7.180705e-02      -7.180706e-02 
       2.000000e-01       7.180705e-02       7.180701e-02 
       2.000000e-01      -7.180702e-02       7.180701e-02 
       2.000000e-01      -7.180702e-02      -7.180706e-02 
       2.000000e-01       7.180705e-02      -7.180706e-02 
       2.000000e-01       7.180705e-02       7.180701e-02 
       2.000000e-01      -7.180702e-02       7.180701e-02 
       4.000000e-01      -7.180698e-02      -7.180714e-02 
       3.999999e-01       7.180709e-02      -7.180714e-02 
       4.000000e-01       7.180709e-02       7.180692e-02 
       4.000001e-01      -7.180698e-02       7.180692e-02 
       4.000000e-01      -7.180698e-02      -7.180714e-02 
       3.999999e-01       7.180709e-02      -7.180714e-02 
       4.000000e-01       7.180709e-02       7.180692e-02 
       4.000001e-01      -7.180698e-02       7.180692e-02 
       6.000000e-01      -7.180691e-02      -7.180728e-02 
       5.999999e-01       7.180716e-02      -7.180728e-02 
       6.000000e-01       7.180716e-02       7.180679e-02 
       6.000001e-01      -7.180691e-02       7.180679e-02 
       6.000000e-01      -7.180691e-02      -7.180728e-02 
       5.999999e-01       7.180716e-02      -7.180728e-02 
       6.000000e-01       7.180716e-02       7.180679e-02 
       6.000001e-01      -7.180691e-02       7.180679e-02 
       8.000000e-01      -7.180681e-02      -7.180746e-02 
       7.999999e-01       7.180725e-02      -7.180746e-02 
       8.000000e-01       7.180725e-02       7.180660e-02 
       8.000001e-01      -7.180681e-02       7.180660e-02 
       8.000000e-01      -7.180681e-02      -7.180746e-02 
       7.999999e-01       7.180725e-02      -7.180746e-02 
       8.000000e-01       7.180725e-02       7.180660e-02 
       8.000001e-01      -7.180681e-02       7.180660e-02 
       1.000000e+00      -7.180669e-02      -7.180770e-02 
       9.999999e-01       7.180737e-02      -7.180770e-02 
       1.000000e+00       7.180737e-02       7.180637e-02 
       1.000000e+00      -7.180669e-02       7.180637e-02 
       1.000000e+00      -7.180669e-02      -7.180770e-02 
       9.999999e-01       7.180737e-02      -7.180770e-02 
       1.000000e+00       7.180737e-02       7.180637e-02 
       1.000000e+00      -7.180669e-02       7.180637e-02 
       1.200000e+00      -7.180655e-02      -7.180798e-02 
       1.200000e+00       7.180752e-02      -7.180798e-02 
       1.200000e+00       7.180752e-02       7.180608e-02 
       1.200000e+00      -7.180655e-02       7.180608e-02 
       1.200000e+00      -7.180655e-02      -7.180798e-02 
       1.200000e+00       7.180752e-02      -7.180798e-02 
       1.200000e+00       7.180752e-02       7.180608e-02 
       1.200000e+00      -7.180655e-02       7.180608e-02 
       1.400000e+00      -7.180638e-02      -7.180832e-02 
       1.400000e+00       7.180769e-02      -7.180832e-02 
       1.400000e+00       7.180769e-02       7.180575e-02 
       1.400000e+00      -7.180638e-02       7.180575e-02 
       1.400000e+00      -7.180638e-02      -7.180832e-02 
       1.400000e+00       7.180769e-02      -7.180832e-02 
       1.400000e+00       7.180769e-02       7.180575e-02 
       1.400000e+00      -7.180638e-02       7.180575e-02 
       1.600000e+00      -7.180618e-02      -7.180870e-02 
       1.600000e+00       7.180788e-02      -7.180870e-02 
       1.600000e+00       7.180788e-02       7.180536e-02 
       1.600000e+00      -7.180618e-02       7.180536e-02 
       1.600000e+00      -7.180618e-02      -7.180870e-02 
       1.600000e+00       7.180788e-02      -7.180870e-02 
       1.600000e+00       7.180788e-02       7.180536e-02 
       1.600000e+00      -7.180618e-02       7.180536e-02 
       1.800000e+00      -7.180596e-02      -7.180913e-02 
       1.800000e+00       7.180810e-02      -7.180913e-02 
       1.800000e+00       7.180810e-02       7.180493e-02 
       1.800000e+00      -7.180596e-02       7.180493e-02 
       1.800000e+00      -7.180596e-02      -7.180913e-02 
       1.800000e+00       7.180810e-02      -7.180913e-02 
       1.800000e+00       7.180810e-02       7.180493e-02 
       1.800000e+00      -7.180596e-02       7.180493e-02 
       2.000000e+00      -7.180572e-02      -7.180961e-02 
       2.000000e+00       7.180834e-02      -7.180961e-02 
       2.000000e+00       7.180834e-02       7.180446e-02 
       2.000000e+00      -7.180572e-02       7.180446e-02 
       2.000000e+00      -7.180572e-02      -7.180961e-02 
       2.000000e+00       7.180834e-02      -7.180961e-02 
       2.000000e+00       7.180834e-02       7.180446e-02 
       2.000000e+00      -7.180572e-02       7.180446e-02 
       2.200000e+00      -7.180546e-02      -7.181013e-02 
       2.200000e+00       7.180861e-02      -7.181013e-02 
       2.200000e+00       7.180861e-02       7.180394e-02 
       2.200000e+00      -7.180546e-02       7.180394e-02 
       2.200000e+00      -7.180546e-02      -7.181013e-02 
       2.200000e+00       7.180861e-02      -7.181013e-02 
       2.200000e+00       7.180861e-02       7.180394e-02 
       2.200000e+00      -7.180546e-02       7.180394e-02 
       2.400000e+00      -7.180517e-02      -7.181069e-02 
       2.400000e+00       7.180890e-02      -7.181069e-02 
       2.400000e+00       7.180890e-02       7.180338e-02 
       2.400000e+00      -7.180517e-02       7.180338e-02 
       2.400000e+00      -7.180517e-02      -7.181069e-02 
       2.400000e+00       7.180890e-02      -7.181069e-02 
       2.400000e+00       7.180890e-02       7.180338e-02 
       2.400000e+00      -7.180517e-02       7.180338e-02 
       2.600000e+00      -7.180486e-02      -7.181130e-02 
       2.600000e+00       7.180921e-02      -7.181130e-02 
       2.600000e+00       7.180921e-02       7.180277e-02 
       2.600000e+00      -7.180486e-02       7.180277e-02 
       2.600000e+00      -7.180486e-02      -7.181130e-02 
       2.600000e+00       7.180921e-02      -7.181130e-02 
       2.600000e+00       7.180921e-02       7.180277e-02 
       2.600000e+00      -7.180486e-02       7.180277e-02 
       2.800000e+00      -7.180453e-02      -7.181194e-02 
       2.800000e+00       7.180954e-02      -7.181194e-02 
       2.800000e+00       7.180954e-02       7.180212e-02 
       2.800000e+00      -7.180453e-02       7.180212e-02 
       2.800000e+00      -7.180453e-02      -7.181194e-02 
       2.800000e+00       7.180954e-02      -7.181194e-02 
       2.800000e+00       7.180954e-02       7.180212e-02 
       2.800000e+00      -7.180453e-02       7.180212e-02 
       3.000000e+00      -7.180418e-02      -7.181263e-02 
       3.000000e+00       7.180989e-02      -7.181263e-02 
       3.000000e+00       7.180989e-02       7.180143e-02 
       3.000000e+00      -7.180418e-02       7.180143e-02 
       3.000000e+00      -7.180418e-02      -7.181263e-02 
       3.000000e+00       7.180989e-02      -7.181263e-02 
       3.000000e+00       7.180989e-02       7.180143e-02 
       3.000000e+00      -7.180418e-02       7.180143e-02 
       3.200000e+00      -7.180381e-02      -7.181336e-02 
       3.200000e+00       7.181026e-02      -7.181336e-02 
       3.200000e+00       7.181026e-02       7.180070e-02 
       3.200000e+00      -7.180381e-02       7.180070e-02 
       3.200000e+00      -7.180381e-02      -7.181336e-02 
       3.200000e+00       7.181026e-02      -7.181336e-02 
       3.200000e+00       7.181026e-02       7.180070e-02 
       3.200000e+00      -7.180381e-02       7.180070e-02 
       3.400000e+00      -7.180342e-02      -7.181413e-02 
       3.400000e+00       7.181065e-02      -7.181413e-02 
       3.400000e+00       7.181065e-02       7.179994e-02 
       3.400000e+00      -7.180342e-02       7.179994e-02 
       3.400000e+00      -7.180342e-02      -7.181413e-02 
       3.400000e+00       7.181065e-02      -7.181413e-02 
       3.400000e+00       7.181065e-02       7.179994e-02 
       3.400000e+00      -7.180342e-02       7.179994e-02 
       3.600000e+00      -7.180301e-02      -7.181493e-02 
       3.600000e+00       7.181106e-02      -7.181493e-02 
       3.600000e+00       7.181106e-02       7.179913e-02 
       3.600000e+00      -7.180301e-02       7.179913e-02 
       3.600000e+00      -7.180301e-02      -7.181493e-02 
       3.600000e+00       7.181106e-02      -7.181493e-02 
       3.600000e+00       7.181106e-02       7.179913e-02 
       3.600000e+00      -7.180301e-02       7.179913e-02 
       3.800000e+00      -7.180258e-02      -7.181578e-02 
       3.800000e+00       7.181149e-02      -7.181578e-02 
       3.800000e+00       7.181149e-02       7.179829e-02 
       3.800000e+00      -7.180258e-02       7.179829e-02 
       3.800000e+00      -7.180258e-02      -7.181578e-02 
       3.800000e+00       7.181149e-02      -7.181578e-02 
       3.800000e+00       7.181149e-02       7.179829e-02 
       3.800000e+00      -7.180258e-02       7.179829e-02 
       4.000000e+00      -7.180213e-02      -7.181666e-02 
       4.000000e+00       7.181194e-02      -7.181666e-02 
       4.000000e+00       7.181194e-02       7.179741e-02 
       4.000000e+00      -7.180213e-02       7.179741e-02 
       4.000000e+00      -7.180213e-02      -7.181666e-02 
       4.000000e+00       7.181194e-02      -7.181666e-02 
       4.000000e+00       7.181194e-02       7.179741e-02 
       4.000000e+00      -7.180213e-02       7.179741e-02 
       4.200000e+00      -7.180166e-02      -7.181757e-02 
[...]
POINT_DATA       800 
VECTORS Displacements float
       5.23267493e-24      -1.38777878e-17       0.00000000e+00 
      -2.28115765e-24       0.00000000e+00       0.00000000e+00 
      -5.23267493e-24       1.38777878e-17       0.00000000e+00 
       2.28115765e-24       0.00000000e+00       0.00000000e+00 
      -9.61698274e-09       1.39102901e-08      -2.72899189e-08 
      -2.95308480e-08       1.39102888e-08      -2.72898861e-08 
       9.53754117e-09       1.39102614e-08      -2.72898914e-08 
       2.94514064e-08       1.39102628e-08      -2.72899242e-08 
      -9.61698274e-09       1.39102901e-08      -2.72899189e-08 
      -2.95308480e-08       1.39102888e-08      -2.72898861e-08 
       9.53754117e-09       1.39102614e-08      -2.72898914e-08 
       2.94514064e-08       1.39102628e-08      -2.72899242e-08 
      -1.90525352e-08       5.52888115e-08      -1.08470279e-07 
      -5.85007809e-08       5.52888061e-08      -1.08470209e-07 
       1.88934773e-08       5.52887566e-08      -1.08470230e-07 
       5.83417230e-08       5.52887620e-08      -1.08470300e-07 
      -1.90525352e-08       5.52888115e-08      -1.08470279e-07 
      -5.85007809e-08       5.52888061e-08      -1.08470209e-07 
       1.88934773e-08       5.52887566e-08      -1.08470230e-07 
       5.83417230e-08       5.52887620e-08      -1.08470300e-07 
      -2.83066557e-08       1.23607086e-07      -2.42507033e-07 
      -8.69097969e-08       1.23607074e-07      -2.42506919e-07 
       2.80678102e-08       1.23607007e-07      -2.42506965e-07 
       8.66709514e-08       1.23607019e-07      -2.42507079e-07 
      -2.83066557e-08       1.23607086e-07      -2.42507033e-07 
      -8.69097969e-08       1.23607074e-07      -2.42506919e-07 
       2.80678102e-08       1.23607007e-07      -2.42506965e-07 
       8.66709514e-08       1.23607019e-07      -2.42507079e-07 
      -3.73793426e-08       2.18336634e-07      -4.28366129e-07 
      -1.14757895e-07       2.18336613e-07      -4.28365968e-07 
       3.70605414e-08       2.18336534e-07      -4.28366048e-07 
       1.14439093e-07       2.18336554e-07      -4.28366209e-07 
      -3.73793426e-08       2.18336634e-07      -4.28366129e-07 
      -1.14757895e-07       2.18336613e-07      -4.28365968e-07 
       3.70605414e-08       2.18336534e-07      -4.28366048e-07 
       1.14439093e-07       2.18336554e-07      -4.28366209e-07 
      -4.62705942e-08       3.38948977e-07      -6.65013520e-07 
      -1.42045072e-07       3.38948945e-07      -6.65013307e-07 
       4.58716727e-08       3.38948858e-07      -6.65013430e-07 
       1.41646150e-07       3.38948890e-07      -6.65013643e-07 
      -4.62705942e-08       3.38948977e-07      -6.65013520e-07 
      -1.42045072e-07       3.38948945e-07      -6.65013307e-07 
       4.58716727e-08       3.38948858e-07      -6.65013430e-07 
       1.41646150e-07       3.38948890e-07      -6.65013643e-07 
      -5.49804089e-08       4.84915638e-07      -9.51415156e-07 
      -1.68771328e-07       4.84915593e-07      -9.51414887e-07 
       5.45012055e-08       4.84915501e-07      -9.51415061e-07 
       1.68292124e-07       4.84915546e-07      -9.51415330e-07 
      -5.49804089e-08       4.84915638e-07      -9.51415156e-07 
      -1.68771328e-07       4.84915593e-07      -9.51414887e-07 
       5.45012055e-08       4.84915501e-07      -9.51415061e-07 
       1.68292124e-07       4.84915546e-07      -9.51415330e-07 
      -6.35087849e-08       6.55708137e-07      -1.28653699e-06 
      -1.94936660e-07       6.55708077e-07      -1.28653666e-06 
       6.29491421e-08       6.55707985e-07      -1.28653689e-06 
       1.94377017e-07       6.55708045e-07      -1.28653722e-06 
      -6.35087849e-08       6.55708137e-07      -1.28653699e-06 
      -1.94936660e-07       6.55708077e-07      -1.28653666e-06 
       6.29491421e-08       6.55707985e-07      -1.28653689e-06 
       1.94377017e-07       6.55708045e-07      -1.28653722e-06 
      -7.18557207e-08       8.50797996e-07      -1.66934497e-06 
      -2.20541067e-07       8.50797919e-07      -1.66934458e-06 
       7.12154835e-08       8.50797830e-07      -1.66934487e-06 
       2.19900830e-07       8.50797906e-07      -1.66934526e-06 
      -7.18557207e-08       8.50797996e-07      -1.66934497e-06 
      -2.20541067e-07       8.50797919e-07      -1.66934458e-06 
       7.12154835e-08       8.50797830e-07      -1.66934487e-06 
       2.19900830e-07       8.50797906e-07      -1.66934526e-06 
      -8.00212141e-08       1.06965674e-06      -2.09880504e-06 
      -2.45584547e-07       1.06965664e-06      -2.09880459e-06 
       7.93002315e-08       1.06965656e-06      -2.09880495e-06 
       2.44863565e-07       1.06965665e-06      -2.09880541e-06 
      -8.00212141e-08       1.06965674e-06      -2.09880504e-06 
      -2.45584547e-07       1.06965664e-06      -2.09880459e-06 
       7.93002315e-08       1.06965656e-06      -2.09880495e-06 
       2.44863565e-07       1.06965665e-06      -2.09880541e-06 
      -8.80052642e-08       1.31175588e-06      -2.57388317e-06 
      -2.70067099e-07       1.31175576e-06      -2.57388264e-06 
       8.72033881e-08       1.31175569e-06      -2.57388309e-06 
       2.69265223e-07       1.31175580e-06      -2.57388361e-06 
      -8.80052644e-08       1.31175588e-06      -2.57388317e-06 
      -2.70067099e-07       1.31175576e-06      -2.57388264e-06 
       8.72033881e-08       1.31175569e-06      -2.57388309e-06 
       2.69265223e-07       1.31175580e-06      -2.57388361e-06 
      -9.58014783e-08       1.57657593e-06      -3.09356185e-06 
      -2.94001774e-07       1.57657579e-06      -3.09356126e-06 
       9.49480974e-08       1.57657574e-06      -3.09356179e-06 
       2.93148393e-07       1.57657588e-06      -3.09356237e-06 
      -9.58014783e-08       1.57657593e-06      -3.09356185e-06 
      -2.94001774e-07       1.57657579e-06      -3.09356126e-06 
       9.49480974e-08       1.57657574e-06      -3.09356179e-06 
       2.93148393e-07       1.57657588e-06      -3.09356237e-06 
      -1.03434025e-07       1.86363379e-06      -3.65689276e-06 
      -3.17432482e-07       1.86363363e-06      -3.65689211e-06 
       1.02528752e-07       1.86363361e-06      -3.65689272e-06 
       3.16527209e-07       1.86363377e-06      -3.65689337e-06 
      -1.03434025e-07       1.86363379e-06      -3.65689276e-06 
      -3.17432482e-07       1.86363363e-06      -3.65689211e-06 
       1.02528752e-07       1.86363361e-06      -3.65689272e-06 
       3.16527209e-07       1.86363377e-06      -3.65689337e-06 
      -1.10902901e-07       2.17245555e-06      -4.26294559e-06 
      -3.40359219e-07       2.17245537e-06      -4.26294488e-06 
       1.09945357e-07       2.17245538e-06      -4.26294559e-06 
       3.39401675e-07       2.17245556e-06      -4.26294630e-06 
      -1.10902901e-07       2.17245555e-06      -4.26294559e-06 
      -3.40359219e-07       2.17245537e-06      -4.26294488e-06 
       1.09945357e-07       2.17245538e-06      -4.26294559e-06 
       3.39401675e-07       2.17245556e-06      -4.26294630e-06 
      -1.18208102e-07       2.50256730e-06      -4.91079007e-06 
      -3.62781980e-07       2.50256709e-06      -4.91078929e-06 
       1.17197915e-07       2.50256714e-06      -4.91079009e-06 
       3.61771794e-07       2.50256734e-06      -4.91079087e-06 
      -1.18208102e-07       2.50256730e-06      -4.91079007e-06 
      -3.62781980e-07       2.50256709e-06      -4.91078929e-06 
       1.17197915e-07       2.50256714e-06      -4.91079009e-06 
       3.61771794e-07       2.50256734e-06      -4.91079087e-06 
      -1.25349623e-07       2.85349514e-06      -5.59949587e-06 
      -3.84700763e-07       2.85349490e-06      -5.59949502e-06 
       1.24286431e-07       2.85349498e-06      -5.59949592e-06 
       3.83637571e-07       2.85349521e-06      -5.59949677e-06 
      -1.25349623e-07       2.85349514e-06      -5.59949587e-06 
      -3.84700763e-07       2.85349490e-06      -5.59949502e-06 
       1.24286431e-07       2.85349498e-06      -5.59949592e-06 
       3.83637571e-07       2.85349521e-06      -5.59949677e-06 
      -1.32327461e-07       3.22476514e-06      -6.32813270e-06 
      -4.06115563e-07       3.22476488e-06      -6.32813178e-06 
       1.31210909e-07       3.22476499e-06      -6.32813279e-06 
       4.04999010e-07       3.22476525e-06      -6.32813370e-06 
      -1.32327461e-07       3.22476514e-06      -6.32813270e-06 
      -4.06115563e-07       3.22476488e-06      -6.32813178e-06 
       1.31210909e-07       3.22476499e-06      -6.32813279e-06 
       4.04999010e-07       3.22476525e-06      -6.32813370e-06 
      -1.39141612e-07       3.61590341e-06      -7.09577025e-06 
      -4.27026374e-07       3.61590312e-06      -7.09576927e-06 
       1.37971354e-07       3.61590327e-06      -7.09577038e-06 
       4.25856115e-07       3.61590356e-06      -7.09577136e-06 
      -1.39141612e-07       3.61590341e-06      -7.09577025e-06 
      -4.27026374e-07       3.61590312e-06      -7.09576927e-06 
       1.37971354e-07       3.61590327e-06      -7.09577038e-06 
       4.25856115e-07       3.61590356e-06      -7.09577136e-06 
      -1.45792070e-07       4.02643603e-06      -7.90147824e-06 
      -4.47433193e-07       4.02643572e-06      -7.90147718e-06 
       1.44567769e-07       4.02643590e-06      -7.90147840e-06 
       4.46208892e-07       4.02643622e-06      -7.90147946e-06 
      -1.45792070e-07       4.02643603e-06      -7.90147824e-06 
      -4.47433193e-07       4.02643572e-06      -7.90147718e-06 
       1.44567769e-07       4.02643590e-06      -7.90147840e-06 
       4.46208892e-07       4.02643622e-06      -7.90147946e-06 
      -1.52278834e-07       4.45588910e-06      -8.74432635e-06 
      -4.67336017e-07       4.45588876e-06      -8.74432522e-06 
       1.51000158e-07       4.45588898e-06      -8.74432655e-06 
       4.66057341e-07       4.45588933e-06      -8.74432768e-06 
      -1.52278834e-07       4.45588910e-06      -8.74432635e-06 
      -4.67336017e-07       4.45588876e-06      -8.74432522e-06 
       1.51000158e-07       4.45588898e-06      -8.74432655e-06 
       4.66057341e-07       4.45588933e-06      -8.74432768e-06 
      -1.58601897e-07       4.90378871e-06      -9.62338429e-06 
      -4.86734841e-07       4.90378833e-06      -9.62338308e-06 
       1.57268524e-07       4.90378860e-06      -9.62338453e-06 
       4.85401469e-07       4.90378898e-06      -9.62338573e-06 
      -1.58601897e-07       4.90378871e-06      -9.62338429e-06 
      -4.86734841e-07       4.90378833e-06      -9.62338308e-06 
       1.57268525e-07       4.90378860e-06      -9.62338453e-06 
       4.85401469e-07       4.90378898e-06      -9.62338573e-06 
      -1.64759624e-07       5.36966999e-06      -1.05377388e-05 
      -5.05647598e-07       5.36966959e-06      -1.05377375e-05 
       1.63392017e-07       5.36966990e-06      -1.05377390e-05 
       5.04279991e-07       5.36967031e-06      -1.05377403e-05 
      -1.64759624e-07       5.36966999e-06      -1.05377388e-05 
      -5.05647598e-07       5.36966959e-06      -1.05377375e-05 
       1.63392017e-07       5.36966990e-06      -1.05377390e-05 
       5.04279991e-07       5.36967031e-06      -1.05377403e-05 
      -1.70772010e-07       5.85310468e-06      -1.14865470e-05 
      -5.24114104e-07       5.85310424e-06      -1.14865456e-05 
       1.69369709e-07       5.85310461e-06      -1.14865473e-05 
       5.22711804e-07       5.85310504e-06      -1.14865486e-05 
      -1.70772010e-07       5.85310468e-06      -1.14865470e-05 
      -5.24114104e-07       5.85310424e-06      -1.14865456e-05 
       1.69369709e-07       5.85310461e-06      -1.14865473e-05 
       5.22711804e-07       5.85310504e-06      -1.14865486e-05 
      -1.76639051e-07       6.35367370e-06      -1.24689845e-05 
      -5.42134354e-07       6.35367324e-06      -1.24689830e-05 
       1.75201609e-07       6.35367366e-06      -1.24689848e-05 
       5.40696912e-07       6.35367412e-06      -1.24689862e-05 
      -1.76639051e-07       6.35367370e-06      -1.24689845e-05 
      -5.42134354e-07       6.35367324e-06      -1.24689830e-05 
       1.75201609e-07       6.35367366e-06      -1.24689848e-05 
       5.40696912e-07       6.35367412e-06      -1.24689862e-05 
      -1.82360743e-07       6.87095802e-06      -1.34842267e-05 
      -5.59708344e-07       6.87095753e-06      -1.34842252e-05 
       1.80887719e-07       6.87095799e-06      -1.34842271e-05 
       5.58235320e-07       6.87095849e-06      -1.34842286e-05 
      -1.82360743e-07       6.87095802e-06      -1.34842267e-05 
      -5.59708344e-07       6.87095753e-06      -1.34842252e-05 
       1.80887719e-07       6.87095799e-06      -1.34842271e-05 
       5.58235320e-07       6.87095849e-06      -1.34842286e-05 
      -1.87937077e-07       7.40453857e-06      -1.45314492e-05 
      -5.76836067e-07       7.40453805e-06      -1.45314477e-05 
       1.86428045e-07       7.40453857e-06      -1.45314497e-05 
       5.75327035e-07       7.40453909e-06      -1.45314512e-05 
      -1.87937077e-07       7.40453857e-06      -1.45314492e-05 
      -5.76836067e-07       7.40453805e-06      -1.45314477e-05 
       1.86428045e-07       7.40453857e-06      -1.45314497e-05 
       5.75327035e-07       7.40453909e-06      -1.45314512e-05 
      -1.93368050e-07       7.95399631e-06      -1.56098275e-05 
      -5.93517517e-07       7.95399575e-06      -1.56098258e-05 
       1.91822594e-07       7.95399632e-06      -1.56098280e-05 
       5.91972062e-07       7.95399688e-06      -1.56098296e-05 
      -1.93368050e-07       7.95399631e-06      -1.56098275e-05 
      -5.93517517e-07       7.95399575e-06      -1.56098258e-05 
       1.91822594e-07       7.95399632e-06      -1.56098280e-05 
       5.91972062e-07       7.95399688e-06      -1.56098296e-05 
      -1.98653656e-07       8.51891217e-06      -1.67185370e-05 
      -6.09752689e-07       8.51891158e-06      -1.67185353e-05 
       1.97071372e-07       8.51891220e-06      -1.67185375e-05 
       6.08170406e-07       8.51891279e-06      -1.67185392e-05 
      -1.98653656e-07       8.51891217e-06      -1.67185370e-05 
      -6.09752689e-07       8.51891158e-06      -1.67185353e-05 
       1.97071372e-07       8.51891220e-06      -1.67185375e-05 
       6.08170406e-07       8.51891279e-06      -1.67185392e-05 
      -2.03793888e-07       9.09886710e-06      -1.78567532e-05 
      -6.25541578e-07       9.09886648e-06      -1.78567515e-05 
       2.02174384e-07       9.09886716e-06      -1.78567539e-05 
       6.23922073e-07       9.09886778e-06      -1.78567556e-05 
      -2.03793888e-07       9.09886710e-06      -1.78567532e-05 
      -6.25541578e-07       9.09886648e-06      -1.78567515e-05 
       2.02174384e-07       9.09886716e-06      -1.78567539e-05 
       6.23922073e-07       9.09886778e-06      -1.78567556e-05 
      -2.08788743e-07       9.69344205e-06      -1.90236518e-05 
      -6.40884179e-07       9.69344140e-06      -1.90236499e-05 
       2.07131634e-07       9.69344213e-06      -1.90236524e-05 
       6.39227069e-07       9.69344278e-06      -1.90236543e-05 
      -2.08788743e-07       9.69344205e-06      -1.90236518e-05 
      -6.40884179e-07       9.69344140e-06      -1.90236499e-05 
       2.07131634e-07       9.69344213e-06      -1.90236524e-05 
       6.39227069e-07       9.69344278e-06      -1.90236543e-05 
      -2.13638215e-07       1.03022180e-05      -2.02184080e-05 
      -6.55780484e-07       1.03022173e-05      -2.02184061e-05 
       2.11943128e-07       1.03022181e-05      -2.02184088e-05 
       6.54085397e-07       1.03022187e-05      -2.02184106e-05 
      -2.13638214e-07       1.03022180e-05      -2.02184080e-05 
      -6.55780484e-07       1.03022173e-05      -2.02184061e-05 
       2.11943127e-07       1.03022181e-05      -2.02184088e-05 
       6.54085397e-07       1.03022187e-05      -2.02184106e-05 
      -2.18344439e-07       1.09247849e-05      -2.14402150e-05 
      -6.70252311e-07       1.09247842e-05      -2.14402130e-05 
       2.16624921e-07       1.09247850e-05      -2.14402157e-05 
       6.68532792e-07       1.09247857e-05      -2.14402177e-05 
      -2.18344439e-07       1.09247849e-05      -2.14402150e-05 
      -6.70252311e-07       1.09247842e-05      -2.14402130e-05 
       2.16624921e-07       1.09247850e-05      -2.14402157e-05 
       6.68532792e-07       1.09247857e-05      -2.14402177e-05 
      -2.22924137e-07       1.15607696e-05      -2.26883371e-05 
      -6.84336260e-07       1.15607689e-05      -2.26883351e-05 
       2.21179743e-07       1.15607698e-05      -2.26883380e-05 
       6.82591867e-07       1.15607705e-05      -2.26883400e-05 
      -2.22924137e-07       1.15607696e-05      -2.26883371e-05 
      -6.84336260e-07       1.15607689e-05      -2.26883351e-05 
       2.21179743e-07       1.15607698e-05      -2.26883380e-05 
       6.82591867e-07       1.15607705e-05      -2.26883400e-05 
      -2.27377298e-07       1.22098082e-05      -2.39620576e-05 
      -6.98032323e-07       1.22098074e-05      -2.39620555e-05 
       2.25607603e-07       1.22098084e-05      -2.39620584e-05 
       6.96262627e-07       1.22098091e-05      -2.39620605e-05 
      -2.27377298e-07       1.22098082e-05      -2.39620576e-05 
      -6.98032323e-07       1.22098074e-05      -2.39620555e-05 
       2.25607603e-07       1.22098084e-05      -2.39620584e-05 
       6.96262627e-07       1.22098091e-05      -2.39620605e-05 
      -2.31703920e-07       1.28715367e-05      -2.52606593e-05 
      -7.11340495e-07       1.28715359e-05      -2.52606571e-05 
       2.29908504e-07       1.28715369e-05      -2.52606602e-05 
       7.09545079e-07       1.28715377e-05      -2.52606623e-05 
      -2.31703920e-07       1.28715367e-05      -2.52606593e-05 
      -7.11340495e-07       1.28715359e-05      -2.52606571e-05 
       2.29908504e-07       1.28715369e-05      -2.52606602e-05 
       7.09545079e-07       1.28715377e-05      -2.52606623e-05 
      -2.35903995e-07       1.35455910e-05      -2.65834252e-05 
      -7.24260771e-07       1.35455902e-05      -2.65834230e-05 
       2.34082453e-07       1.35455913e-05      -2.65834262e-05 
       7.22439228e-07       1.35455921e-05      -2.65834284e-05 
      -2.35903995e-07       1.35455910e-05      -2.65834252e-05 
      -7.24260771e-07       1.35455902e-05      -2.65834230e-05 
       2.34082453e-07       1.35455913e-05      -2.65834262e-05 
       7.22439228e-07       1.35455921e-05      -2.65834284e-05 
      -2.39977518e-07       1.42316074e-05      -2.79296385e-05 
      -7.36793145e-07       1.42316065e-05      -2.79296362e-05 
       2.38129455e-07       1.42316076e-05      -2.79296395e-05 
       7.34945082e-07       1.42316085e-05      -2.79296418e-05 
      -2.39977518e-07       1.42316074e-05      -2.79296385e-05 
      -7.36793145e-07       1.42316065e-05      -2.79296362e-05 
       2.38129455e-07       1.42316076e-05      -2.79296395e-05 
       7.34945082e-07       1.42316085e-05      -2.79296418e-05 
      -2.43924482e-07       1.49292217e-05      -2.92985820e-05 
      -7.48937610e-07       1.49292208e-05      -2.92985797e-05 
       2.42049518e-07       1.49292219e-05      -2.92985831e-05 
       7.47062646e-07       1.49292228e-05      -2.92985854e-05 
      -2.43924482e-07       1.49292217e-05      -2.92985820e-05 
      -7.48937610e-07       1.49292208e-05      -2.92985797e-05 
       2.42049518e-07       1.49292219e-05      -2.92985831e-05 
       7.47062646e-07       1.49292228e-05      -2.92985854e-05 
      -2.47744881e-07       1.56380700e-05      -3.06895389e-05 
      -7.60694158e-07       1.56380691e-05      -3.06895365e-05 
       2.45842648e-07       1.56380703e-05      -3.06895400e-05 
       7.58791926e-07       1.56380712e-05      -3.06895424e-05 
      -2.47744881e-07       1.56380700e-05      -3.06895389e-05 
      -7.60694158e-07       1.56380691e-05      -3.06895365e-05 