# vtk DataFile Version 2.0
./output/onsasExample_BladeCantileverBeamNoPitch_windVel3DDynamic 3D/onsasExample_BladeCantileverBeamNoPitch_windVel3DDynamic 3D_0356.vtk
ASCII
DATASET UNSTRUCTURED_GRID

POINTS 800 float
      -2.220897e-25      -7.180703e-02      -7.180703e-02 
      -1.499336e-23       7.180703e-02      -7.180703e-02 
       2.220897e-25       7.180703e-02       7.180703e-02 
       1.499336e-23      -7.180703e-02       7.180703e-02 
       2.000000e-01      -7.180702e-02      -7.180706e-02 
       2.000000e-01       7.180705e-02      -7.180706e-02 
       2.000000e-01       7.180705e-02       7.180701e-02 
       2.000000e-01      -7.180702e-02       7.180701e-02 
       2.000000e-01      -7.180702e-02      -7.180706e-02 
       2.000000e-01       7.180705e-02      -7.180706e-02 
       2.000000e-01       7.180705e-02       7.180701e-02 
       2.000000e-01      -7.180702e-02       7.180701e-02 
       4.000000e-01      -7.180698e-02      -7.180713e-02 
       3.999999e-01       7.180709e-02      -7.180713e-02 
       4.000000e-01       7.180709e-02       7.180694e-02 
       4.000001e-01      -7.180698e-02       7.180694e-02 
       4.000000e-01      -7.180698e-02      -7.180713e-02 
       3.999999e-01       7.180709e-02      -7.180713e-02 
       4.000000e-01       7.180709e-02       7.180694e-02 
       4.000001e-01      -7.180698e-02       7.180694e-02 
       6.000000e-01      -7.180691e-02      -7.180725e-02 
       5.999999e-01       7.180715e-02      -7.180725e-02 
       6.000000e-01       7.180715e-02       7.180682e-02 
       6.000001e-01      -7.180691e-02       7.180682e-02 
       6.000000e-01      -7.180691e-02      -7.180725e-02 
       5.999999e-01       7.180715e-02      -7.180725e-02 
       6.000000e-01       7.180715e-02       7.180682e-02 
       6.000001e-01      -7.180691e-02       7.180682e-02 
       8.000000e-01      -7.180682e-02      -7.180742e-02 
       7.999999e-01       7.180725e-02      -7.180742e-02 
       8.000000e-01       7.180725e-02       7.180665e-02 
       8.000001e-01      -7.180682e-02       7.180665e-02 
       8.000000e-01      -7.180682e-02      -7.180742e-02 
       7.999999e-01       7.180725e-02      -7.180742e-02 
       8.000000e-01       7.180725e-02       7.180665e-02 
       8.000001e-01      -7.180682e-02       7.180665e-02 
       1.000000e+00      -7.180670e-02      -7.180763e-02 
       9.999999e-01       7.180737e-02      -7.180763e-02 
       1.000000e+00       7.180737e-02       7.180644e-02 
       1.000000e+00      -7.180670e-02       7.180644e-02 
       1.000000e+00      -7.180670e-02      -7.180763e-02 
       9.999999e-01       7.180737e-02      -7.180763e-02 
       1.000000e+00       7.180737e-02       7.180644e-02 
       1.000000e+00      -7.180670e-02       7.180644e-02 
       1.200000e+00      -7.180656e-02      -7.180789e-02 
       1.200000e+00       7.180751e-02      -7.180789e-02 
       1.200000e+00       7.180751e-02       7.180618e-02 
       1.200000e+00      -7.180656e-02       7.180618e-02 
       1.200000e+00      -7.180656e-02      -7.180789e-02 
       1.200000e+00       7.180751e-02      -7.180789e-02 
       1.200000e+00       7.180751e-02       7.180618e-02 
       1.200000e+00      -7.180656e-02       7.180618e-02 
       1.400000e+00      -7.180639e-02      -7.180819e-02 
       1.400000e+00       7.180768e-02      -7.180819e-02 
       1.400000e+00       7.180768e-02       7.180588e-02 
       1.400000e+00      -7.180639e-02       7.180588e-02 
       1.400000e+00      -7.180639e-02      -7.180819e-02 
       1.400000e+00       7.180768e-02      -7.180819e-02 
       1.400000e+00       7.180768e-02       7.180588e-02 
       1.400000e+00      -7.180639e-02       7.180588e-02 
       1.600000e+00      -7.180620e-02      -7.180853e-02 
       1.600000e+00       7.180787e-02      -7.180853e-02 
       1.600000e+00       7.180787e-02       7.180554e-02 
       1.600000e+00      -7.180620e-02       7.180554e-02 
       1.600000e+00      -7.180620e-02      -7.180853e-02 
       1.600000e+00       7.180787e-02      -7.180853e-02 
       1.600000e+00       7.180787e-02       7.180554e-02 
       1.600000e+00      -7.180620e-02       7.180554e-02 
       1.800000e+00      -7.180598e-02      -7.180891e-02 
       1.800000e+00       7.180808e-02      -7.180891e-02 
       1.800000e+00       7.180808e-02       7.180515e-02 
       1.800000e+00      -7.180598e-02       7.180515e-02 
       1.800000e+00      -7.180598e-02      -7.180891e-02 
       1.800000e+00       7.180808e-02      -7.180891e-02 
       1.800000e+00       7.180808e-02       7.180515e-02 
       1.800000e+00      -7.180598e-02       7.180515e-02 
       2.000000e+00      -7.180575e-02      -7.180934e-02 
       2.000000e+00       7.180832e-02      -7.180934e-02 
       2.000000e+00       7.180832e-02       7.180473e-02 
       2.000000e+00      -7.180575e-02       7.180473e-02 
       2.000000e+00      -7.180575e-02      -7.180934e-02 
       2.000000e+00       7.180832e-02      -7.180934e-02 
       2.000000e+00       7.180832e-02       7.180473e-02 
       2.000000e+00      -7.180575e-02       7.180473e-02 
       2.200000e+00      -7.180549e-02      -7.180980e-02 
       2.200000e+00       7.180858e-02      -7.180980e-02 
       2.200000e+00       7.180858e-02       7.180427e-02 
       2.200000e+00      -7.180549e-02       7.180427e-02 
       2.200000e+00      -7.180549e-02      -7.180980e-02 
       2.200000e+00       7.180858e-02      -7.180980e-02 
       2.200000e+00       7.180858e-02       7.180427e-02 
       2.200000e+00      -7.180549e-02       7.180427e-02 
       2.400000e+00      -7.180521e-02      -7.181030e-02 
       2.400000e+00       7.180886e-02      -7.181030e-02 
       2.400000e+00       7.180886e-02       7.180376e-02 
       2.400000e+00      -7.180521e-02       7.180376e-02 
       2.400000e+00      -7.180521e-02      -7.181030e-02 
       2.400000e+00       7.180886e-02      -7.181030e-02 
       2.400000e+00       7.180886e-02       7.180376e-02 
       2.400000e+00      -7.180521e-02       7.180376e-02 
       2.600000e+00      -7.180490e-02      -7.181084e-02 
       2.600000e+00       7.180916e-02      -7.181084e-02 
       2.600000e+00       7.180916e-02       7.180322e-02 
       2.600000e+00      -7.180490e-02       7.180322e-02 
       2.600000e+00      -7.180490e-02      -7.181084e-02 
       2.600000e+00       7.180916e-02      -7.181084e-02 
       2.600000e+00       7.180916e-02       7.180322e-02 
       2.600000e+00      -7.180490e-02       7.180322e-02 
       2.800000e+00      -7.180458e-02      -7.181142e-02 
       2.800000e+00       7.180949e-02      -7.181142e-02 
       2.800000e+00       7.180949e-02       7.180265e-02 
       2.800000e+00      -7.180458e-02       7.180265e-02 
       2.800000e+00      -7.180458e-02      -7.181142e-02 
       2.800000e+00       7.180949e-02      -7.181142e-02 
       2.800000e+00       7.180949e-02       7.180265e-02 
       2.800000e+00      -7.180458e-02       7.180265e-02 
       3.000000e+00      -7.180424e-02      -7.181203e-02 
       3.000000e+00       7.180983e-02      -7.181203e-02 
       3.000000e+00       7.180983e-02       7.180203e-02 
       3.000000e+00      -7.180424e-02       7.180203e-02 
       3.000000e+00      -7.180424e-02      -7.181203e-02 
       3.000000e+00       7.180983e-02      -7.181203e-02 
       3.000000e+00       7.180983e-02       7.180203e-02 
       3.000000e+00      -7.180424e-02       7.180203e-02 
       3.200000e+00      -7.180387e-02      -7.181268e-02 
       3.200000e+00       7.181019e-02      -7.181268e-02 
       3.200000e+00       7.181019e-02       7.180138e-02 
       3.200000e+00      -7.180387e-02       7.180138e-02 
       3.200000e+00      -7.180387e-02      -7.181268e-02 
       3.200000e+00       7.181019e-02      -7.181268e-02 
       3.200000e+00       7.181019e-02       7.180138e-02 
       3.200000e+00      -7.180387e-02       7.180138e-02 
       3.400000e+00      -7.180349e-02      -7.181337e-02 
       3.400000e+00       7.181058e-02      -7.181337e-02 
       3.400000e+00       7.181058e-02       7.180070e-02 
       3.400000e+00      -7.180349e-02       7.180070e-02 
       3.400000e+00      -7.180349e-02      -7.181337e-02 
       3.400000e+00       7.181058e-02      -7.181337e-02 
       3.400000e+00       7.181058e-02       7.180070e-02 
       3.400000e+00      -7.180349e-02       7.180070e-02 
       3.600000e+00      -7.180309e-02      -7.181408e-02 
       3.600000e+00       7.181098e-02      -7.181408e-02 
       3.600000e+00       7.181098e-02       7.179998e-02 
       3.600000e+00      -7.180309e-02       7.179998e-02 
       3.600000e+00      -7.180309e-02      -7.181408e-02 
       3.600000e+00       7.181098e-02      -7.181408e-02 
       3.600000e+00       7.181098e-02       7.179998e-02 
       3.600000e+00      -7.180309e-02       7.179998e-02 
       3.800000e+00      -7.180267e-02      -7.181483e-02 
       3.800000e+00       7.181140e-02      -7.181483e-02 
       3.800000e+00       7.181140e-02       7.179923e-02 
       3.800000e+00      -7.180267e-02       7.179923e-02 
       3.800000e+00      -7.180267e-02      -7.181483e-02 
       3.800000e+00       7.181140e-02      -7.181483e-02 
       3.800000e+00       7.181140e-02       7.179923e-02 
       3.800000e+00      -7.180267e-02       7.179923e-02 
       4.000000e+00      -7.180223e-02      -7.181561e-02 
       4.000000e+00       7.181184e-02      -7.181561e-02 
       4.000000e+00       7.181184e-02       7.179845e-02 
       4.000000e+00      -7.180223e-02       7.179845e-02 
       4.000000e+00      -7.180223e-02      -7.181561e-02 
       4.000000e+00       7.181184e-02      -7.181561e-02 
       4.000000e+00       7.181184e-02       7.179845e-02 
       4.000000e+00      -7.180223e-02       7.179845e-02 
       4.200000e+00      -7.180177e-02      -7.181643e-02 
[...]
POINT_DATA       800 
VECTORS Displacements float
      -2.22089737e-25      -1.38777878e-17       0.00000000e+00 
      -1.49933597e-23       1.38777878e-17       0.00000000e+00 
       2.22089737e-25       1.38777878e-17       0.00000000e+00 
       1.49933597e-23      -1.38777878e-17       0.00000000e+00 
      -7.79071277e-09       1.36596063e-08      -2.44923583e-08 
      -2.73447588e-08       1.36596049e-08      -2.44923295e-08 
       7.71307099e-09       1.36595809e-08      -2.44923338e-08 
       2.72671170e-08       1.36595823e-08      -2.44923626e-08 
      -7.79071277e-09       1.36596063e-08      -2.44923583e-08 
      -2.73447588e-08       1.36596049e-08      -2.44923295e-08 
       7.71307099e-09       1.36595809e-08      -2.44923338e-08 
       2.72671170e-08       1.36595823e-08      -2.44923626e-08 
      -1.54207809e-08       5.42871695e-08      -9.73197526e-08 
      -5.41505620e-08       5.42871643e-08      -9.73196905e-08 
       1.52653513e-08       5.42871209e-08      -9.73197073e-08 
       5.39951324e-08       5.42871261e-08      -9.73197694e-08 
      -1.54207809e-08       5.42871695e-08      -9.73197526e-08 
      -5.41505620e-08       5.42871643e-08      -9.73196905e-08 
       1.52653513e-08       5.42871209e-08      -9.73197073e-08 
       5.39951324e-08       5.42871261e-08      -9.73197694e-08 
      -2.28902028e-08       1.21355846e-07      -2.17507702e-07 
      -8.04174082e-08       1.21355835e-07      -2.17507602e-07 
       2.26568423e-08       1.21355776e-07      -2.17507639e-07 
       8.01840476e-08       1.21355788e-07      -2.17507739e-07 
      -2.28902028e-08       1.21355846e-07      -2.17507702e-07 
      -8.04174082e-08       1.21355835e-07      -2.17507602e-07 
       2.26568423e-08       1.21355776e-07      -2.17507639e-07 
       8.01840476e-08       1.21355788e-07      -2.17507739e-07 
      -3.01989773e-08       2.14338792e-07      -3.84081724e-07 
      -1.06145296e-07       2.14338772e-07      -3.84081582e-07 
       2.98875457e-08       2.14338703e-07      -3.84081647e-07 
       1.05833864e-07       2.14338723e-07      -3.84081788e-07 
      -3.01989773e-08       2.14338792e-07      -3.84081724e-07 
      -1.06145296e-07       2.14338772e-07      -3.84081582e-07 
       2.98875457e-08       2.14338703e-07      -3.84081647e-07 
       1.05833864e-07       2.14338723e-07      -3.84081788e-07 
      -3.73471026e-08       3.32709164e-07      -5.96067338e-07 
      -1.31334224e-07       3.32709133e-07      -5.96067151e-07 
       3.69574626e-08       3.32709056e-07      -5.96067250e-07 
       1.30944584e-07       3.32709087e-07      -5.96067437e-07 
      -3.73471026e-08       3.32709164e-07      -5.96067338e-07 
      -1.31334224e-07       3.32709133e-07      -5.96067151e-07 
       3.69574626e-08       3.32709056e-07      -5.96067250e-07 
       1.30944584e-07       3.32709087e-07      -5.96067437e-07 
      -4.43345776e-08       4.75940118e-07      -8.52490063e-07 
      -1.55984190e-07       4.75940074e-07      -8.52489827e-07 
       4.38665950e-08       4.75939994e-07      -8.52489966e-07 
       1.55516207e-07       4.75940037e-07      -8.52490202e-07 
      -4.43345776e-08       4.75940118e-07      -8.52490063e-07 
      -1.55984190e-07       4.75940074e-07      -8.52489827e-07 
       4.38665950e-08       4.75939994e-07      -8.52489966e-07 
       1.55516207e-07       4.75940037e-07      -8.52490202e-07 
      -5.11614004e-08       6.43504810e-07      -1.15237542e-06 
      -1.80095193e-07       6.43504752e-07      -1.15237513e-06 
       5.06149438e-08       6.43504671e-07      -1.15237531e-06 
       1.79548737e-07       6.43504729e-07      -1.15237560e-06 
      -5.11614004e-08       6.43504810e-07      -1.15237542e-06 
      -1.80095193e-07       6.43504752e-07      -1.15237513e-06 
       5.06149438e-08       6.43504671e-07      -1.15237531e-06 
       1.79548737e-07       6.43504729e-07      -1.15237560e-06 
      -5.78275698e-08       8.34876397e-07      -1.49474892e-06 
      -2.03667232e-07       8.34876323e-07      -1.49474857e-06 
       5.72025107e-08       8.34876244e-07      -1.49474881e-06 
       2.03042173e-07       8.34876318e-07      -1.49474916e-06 
      -5.78275698e-08       8.34876397e-07      -1.49474892e-06 
      -2.03667232e-07       8.34876323e-07      -1.49474857e-06 
       5.72025107e-08       8.34876244e-07      -1.49474881e-06 
       2.03042173e-07       8.34876318e-07      -1.49474916e-06 
      -6.43330846e-08       1.04952803e-06      -1.87863609e-06 
      -2.26700306e-07       1.04952794e-06      -1.87863569e-06 
       6.36292974e-08       1.04952787e-06      -1.87863598e-06 
       2.25996519e-07       1.04952796e-06      -1.87863638e-06 
      -6.43330846e-08       1.04952803e-06      -1.87863609e-06 
      -2.26700306e-07       1.04952794e-06      -1.87863569e-06 
       6.36292974e-08       1.04952787e-06      -1.87863598e-06 
       2.25996519e-07       1.04952796e-06      -1.87863638e-06 
      -7.06779428e-08       1.28693288e-06      -2.30306244e-06 
      -2.49194412e-07       1.28693277e-06      -2.30306198e-06 
       6.98953047e-08       1.28693270e-06      -2.30306233e-06 
       2.48411774e-07       1.28693281e-06      -2.30306279e-06 
      -7.06779431e-08       1.28693288e-06      -2.30306244e-06 
      -2.49194412e-07       1.28693277e-06      -2.30306198e-06 
       6.98953047e-08       1.28693270e-06      -2.30306233e-06 
       2.48411774e-07       1.28693281e-06      -2.30306279e-06 
      -7.68580599e-08       1.54657355e-06      -2.76707261e-06 
      -2.71165709e-07       1.54657342e-06      -2.76707210e-06 
       7.60248020e-08       1.54657337e-06      -2.76707252e-06 
       2.70332452e-07       1.54657350e-06      -2.76707303e-06 
      -7.68580599e-08       1.54657355e-06      -2.76707261e-06 
      -2.71165709e-07       1.54657342e-06      -2.76707210e-06 
       7.60248020e-08       1.54657337e-06      -2.76707252e-06 
       2.70332452e-07       1.54657350e-06      -2.76707303e-06 
      -8.28965918e-08       1.82796969e-06      -3.26978349e-06 
      -2.92656981e-07       1.82796954e-06      -3.26978292e-06 
       8.20123960e-08       1.82796952e-06      -3.26978341e-06 
       2.91772785e-07       1.82796967e-06      -3.26978398e-06 
      -8.28965918e-08       1.82796969e-06      -3.26978349e-06 
      -2.92656981e-07       1.82796954e-06      -3.26978292e-06 
       8.20123960e-08       1.82796952e-06      -3.26978341e-06 
       2.91772785e-07       1.82796967e-06      -3.26978398e-06 
      -8.87935361e-08       2.13064999e-06      -3.81032896e-06 
      -3.13668223e-07       2.13064981e-06      -3.81032834e-06 
       8.78580888e-08       2.13064982e-06      -3.81032890e-06 
       3.12732777e-07       2.13065000e-06      -3.81032952e-06 
      -8.87935361e-08       2.13064999e-06      -3.81032896e-06 
      -3.13668223e-07       2.13064981e-06      -3.81032834e-06 
       8.78580888e-08       2.13064982e-06      -3.81032890e-06 
       3.12732777e-07       2.13065000e-06      -3.81032952e-06 
      -9.45488887e-08       2.45414312e-06      -4.38784291e-06 
      -3.34199433e-07       2.45414292e-06      -4.38784223e-06 
       9.35618854e-08       2.45414295e-06      -4.38784287e-06 
       3.33212430e-07       2.45414315e-06      -4.38784355e-06 
      -9.45488887e-08       2.45414312e-06      -4.38784291e-06 
      -3.34199433e-07       2.45414292e-06      -4.38784223e-06 
       9.35618854e-08       2.45414295e-06      -4.38784287e-06 
       3.33212430e-07       2.45414315e-06      -4.38784355e-06 
      -1.00162646e-07       2.79797776e-06      -5.00145924e-06 
      -3.54250607e-07       2.79797754e-06      -5.00145850e-06 
       9.91237883e-08       2.79797760e-06      -5.00145922e-06 
       3.53211749e-07       2.79797782e-06      -5.00145996e-06 
      -1.00162646e-07       2.79797776e-06      -5.00145924e-06 
      -3.54250607e-07       2.79797754e-06      -5.00145850e-06 
       9.91237883e-08       2.79797760e-06      -5.00145922e-06 
       3.53211749e-07       2.79797782e-06      -5.00145996e-06 
      -1.05634805e-07       3.16168259e-06      -5.65031182e-06 
      -3.73821741e-07       3.16168234e-06      -5.65031102e-06 
       1.04543801e-07       3.16168244e-06      -5.65031182e-06 
       3.72730737e-07       3.16168269e-06      -5.65031262e-06 
      -1.05634805e-07       3.16168259e-06      -5.65031182e-06 
      -3.73821741e-07       3.16168234e-06      -5.65031102e-06 
       1.04543801e-07       3.16168244e-06      -5.65031182e-06 
       3.72730737e-07       3.16168269e-06      -5.65031262e-06 
      -1.10965362e-07       3.54478630e-06      -6.33353455e-06 
      -3.92912832e-07       3.54478602e-06      -6.33353369e-06 
       1.09821929e-07       3.54478615e-06      -6.33353457e-06 
       3.91769398e-07       3.54478642e-06      -6.33353543e-06 
      -1.10965362e-07       3.54478630e-06      -6.33353455e-06 
      -3.92912832e-07       3.54478602e-06      -6.33353369e-06 
       1.09821929e-07       3.54478615e-06      -6.33353457e-06 
       3.91769398e-07       3.54478642e-06      -6.33353543e-06 
      -1.16154313e-07       3.94681756e-06      -7.05026131e-06 
      -4.11523875e-07       3.94681725e-06      -7.05026039e-06 
       1.14958172e-07       3.94681741e-06      -7.05026135e-06 
       4.10327735e-07       3.94681771e-06      -7.05026228e-06 
      -1.16154313e-07       3.94681756e-06      -7.05026131e-06 
      -4.11523875e-07       3.94681725e-06      -7.05026039e-06 
       1.14958172e-07       3.94681741e-06      -7.05026135e-06 
       4.10327735e-07       3.94681771e-06      -7.05026228e-06 
      -1.21201654e-07       4.36730504e-06      -7.79962600e-06 
      -4.29654868e-07       4.36730471e-06      -7.79962501e-06 
       1.19952538e-07       4.36730490e-06      -7.79962606e-06 
       4.28405752e-07       4.36730523e-06      -7.79962705e-06 
      -1.21201654e-07       4.36730504e-06      -7.79962600e-06 
      -4.29654868e-07       4.36730471e-06      -7.79962501e-06 
       1.19952538e-07       4.36730490e-06      -7.79962606e-06 
       4.28405752e-07       4.36730523e-06      -7.79962705e-06 
      -1.26107383e-07       4.80577744e-06      -8.58076249e-06 
      -4.47305807e-07       4.80577708e-06      -8.58076143e-06 
       1.24805028e-07       4.80577731e-06      -8.58076257e-06 
       4.46003452e-07       4.80577767e-06      -8.58076363e-06 
      -1.26107383e-07       4.80577744e-06      -8.58076249e-06 
      -4.47305807e-07       4.80577708e-06      -8.58076143e-06 
       1.24805028e-07       4.80577731e-06      -8.58076257e-06 
       4.46003452e-07       4.80577767e-06      -8.58076363e-06 
      -1.30870835e-07       5.26177259e-06      -9.39282249e-06 
      -4.64495816e-07       5.26177220e-06      -9.39282138e-06 
       1.29534936e-07       5.26177247e-06      -9.39282261e-06 
       4.63159916e-07       5.26177286e-06      -9.39282372e-06 
      -1.30870835e-07       5.26177259e-06      -9.39282249e-06 
      -4.64495816e-07       5.26177220e-06      -9.39282138e-06 
       1.29534936e-07       5.26177247e-06      -9.39282261e-06 
       4.63159916e-07       5.26177286e-06      -9.39282372e-06 
      -1.35511333e-07       5.73486525e-06      -1.02350292e-05 
      -4.81264181e-07       5.73486483e-06      -1.02350280e-05 
       1.34141516e-07       5.73486514e-06      -1.02350293e-05 
       4.79894364e-07       5.73486556e-06      -1.02350305e-05 
      -1.35511333e-07       5.73486525e-06      -1.02350292e-05 
      -4.81264181e-07       5.73486483e-06      -1.02350280e-05 
       1.34141516e-07       5.73486514e-06      -1.02350293e-05 
       4.79894364e-07       5.73486556e-06      -1.02350305e-05 
      -1.40028870e-07       6.22463945e-06      -1.11066236e-05 
      -4.97610897e-07       6.22463900e-06      -1.11066224e-05 
       1.38624773e-07       6.22463936e-06      -1.11066238e-05 
       4.96206800e-07       6.22463980e-06      -1.11066250e-05 
      -1.40028870e-07       6.22463945e-06      -1.11066236e-05 
      -4.97610897e-07       6.22463900e-06      -1.11066224e-05 
       1.38624773e-07       6.22463936e-06      -1.11066238e-05 
       4.96206800e-07       6.22463980e-06      -1.11066250e-05 
      -1.44423444e-07       6.73067924e-06      -1.20068468e-05 
      -5.13535962e-07       6.73067876e-06      -1.20068455e-05 
       1.42984711e-07       6.73067916e-06      -1.20068470e-05 
       5.12097229e-07       6.73067963e-06      -1.20068483e-05 
      -1.44423444e-07       6.73067924e-06      -1.20068468e-05 
      -5.13535962e-07       6.73067876e-06      -1.20068455e-05 
       1.42984711e-07       6.73067916e-06      -1.20068470e-05 
       5.12097229e-07       6.73067963e-06      -1.20068483e-05 
      -1.48695049e-07       7.25256865e-06      -1.29349398e-05 
      -5.29039369e-07       7.25256815e-06      -1.29349385e-05 
       1.47221336e-07       7.25256859e-06      -1.29349401e-05 
       5.27565654e-07       7.25256909e-06      -1.29349414e-05 
      -1.48695049e-07       7.25256865e-06      -1.29349398e-05 
      -5.29039369e-07       7.25256815e-06      -1.29349385e-05 
       1.47221336e-07       7.25256859e-06      -1.29349401e-05 
       5.27565654e-07       7.25256909e-06      -1.29349414e-05 
      -1.52843682e-07       7.78989173e-06      -1.38901438e-05 
      -5.44121113e-07       7.78989120e-06      -1.38901424e-05 
       1.51334650e-07       7.78989168e-06      -1.38901441e-05 
       5.42612082e-07       7.78989222e-06      -1.38901455e-05 
      -1.52843682e-07       7.78989173e-06      -1.38901438e-05 
      -5.44121113e-07       7.78989120e-06      -1.38901424e-05 
       1.51334650e-07       7.78989168e-06      -1.38901441e-05 
       5.42612082e-07       7.78989222e-06      -1.38901455e-05 
      -1.56869334e-07       8.34223252e-06      -1.48716998e-05 
      -5.58781192e-07       8.34223195e-06      -1.48716983e-05 
       1.55324660e-07       8.34223248e-06      -1.48717001e-05 
       5.57236516e-07       8.34223304e-06      -1.48717016e-05 
      -1.56869334e-07       8.34223252e-06      -1.48716998e-05 
      -5.58781192e-07       8.34223195e-06      -1.48716983e-05 
       1.55324660e-07       8.34223248e-06      -1.48717001e-05 
       5.57236516e-07       8.34223304e-06      -1.48717016e-05 
      -1.60772005e-07       8.90917505e-06      -1.58788488e-05 
      -5.73019598e-07       8.90917446e-06      -1.58788472e-05 
       1.59191369e-07       8.90917503e-06      -1.58788491e-05 
       5.71438963e-07       8.90917562e-06      -1.58788506e-05 
      -1.60772005e-07       8.90917505e-06      -1.58788488e-05 
      -5.73019598e-07       8.90917446e-06      -1.58788472e-05 
       1.59191369e-07       8.90917503e-06      -1.58788491e-05 
       5.71438963e-07       8.90917562e-06      -1.58788506e-05 
      -1.64551688e-07       9.49030336e-06      -1.69108319e-05 
      -5.86836328e-07       9.49030274e-06      -1.69108303e-05 
       1.62934785e-07       9.49030336e-06      -1.69108322e-05 
       5.85219425e-07       9.49030398e-06      -1.69108338e-05 
      -1.64551688e-07       9.49030336e-06      -1.69108319e-05 
      -5.86836328e-07       9.49030274e-06      -1.69108303e-05 
       1.62934785e-07       9.49030336e-06      -1.69108322e-05 
       5.85219425e-07       9.49030398e-06      -1.69108338e-05 
      -1.68208380e-07       1.00852015e-05      -1.79668901e-05 
      -6.00231378e-07       1.00852009e-05      -1.79668885e-05 
       1.66554908e-07       1.00852015e-05      -1.79668905e-05 
       5.98577907e-07       1.00852022e-05      -1.79668922e-05 
      -1.68208380e-07       1.00852015e-05      -1.79668901e-05 
      -6.00231378e-07       1.00852009e-05      -1.79668885e-05 
       1.66554908e-07       1.00852015e-05      -1.79668905e-05 
       5.98577906e-07       1.00852022e-05      -1.79668922e-05 
      -1.71744682e-07       1.06934627e-05      -1.90462824e-05 
      -6.13227146e-07       1.06934620e-05      -1.90462807e-05 
       1.70067724e-07       1.06934627e-05      -1.90462828e-05 
       6.11550188e-07       1.06934634e-05      -1.90462845e-05 
      -1.71744682e-07       1.06934627e-05      -1.90462824e-05 
      -6.13227146e-07       1.06934620e-05      -1.90462807e-05 
       1.70067724e-07       1.06934627e-05      -1.90462828e-05 
       6.11550188e-07       1.06934634e-05      -1.90462845e-05 
      -1.75176685e-07       1.13147171e-05      -2.01483392e-05 
      -6.25859921e-07       1.13147164e-05      -2.01483374e-05 
       1.73475889e-07       1.13147172e-05      -2.01483396e-05 
       6.24159125e-07       1.13147179e-05      -2.01483414e-05 
      -1.75176685e-07       1.13147171e-05      -2.01483392e-05 
      -6.25859921e-07       1.13147164e-05      -2.01483374e-05 
       1.73475889e-07       1.13147172e-05      -2.01483396e-05 
       6.24159125e-07       1.13147179e-05      -2.01483414e-05 
      -1.78504380e-07       1.19486047e-05      -2.12724093e-05 
      -6.38129698e-07       1.19486039e-05      -2.12724075e-05 
       1.76779406e-07       1.19486047e-05      -2.12724098e-05 
       6.36404724e-07       1.19486054e-05      -2.12724116e-05 
      -1.78504380e-07       1.19486047e-05      -2.12724093e-05 
      -6.38129698e-07       1.19486039e-05      -2.12724075e-05 
       1.76779406e-07       1.19486047e-05      -2.12724098e-05 
       6.36404724e-07       1.19486054e-05      -2.12724116e-05 
      -1.81727767e-07       1.25947650e-05      -2.24178415e-05 
      -6.50036473e-07       1.25947642e-05      -2.24178397e-05 
       1.79978281e-07       1.25947651e-05      -2.24178421e-05 
       6.48286987e-07       1.25947658e-05      -2.24178439e-05 
      -1.81727767e-07       1.25947650e-05      -2.24178415e-05 
      -6.50036473e-07       1.25947642e-05      -2.24178397e-05 
       1.79978281e-07       1.25947651e-05      -2.24178421e-05 
       6.48286987e-07       1.25947658e-05      -2.24178439e-05 
      -1.84846838e-07       1.32528379e-05      -2.35839846e-05 
      -6.61580239e-07       1.32528371e-05      -2.35839826e-05 
       1.83072518e-07       1.32528380e-05      -2.35839851e-05 
       6.59805920e-07       1.32528387e-05      -2.35839870e-05 
      -1.84846838e-07       1.32528379e-05      -2.35839846e-05 
      -6.61580239e-07       1.32528371e-05      -2.35839826e-05 
       1.83072518e-07       1.32528380e-05      -2.35839851e-05 
       6.59805920e-07       1.32528387e-05      -2.35839870e-05 
      -1.87861589e-07       1.39224630e-05      -2.47701872e-05 
      -6.72760994e-07       1.39224622e-05      -2.47701852e-05 
       1.86062123e-07       1.39224631e-05      -2.47701878e-05 
       6.70961528e-07       1.39224639e-05      -2.47701897e-05 
      -1.87861589e-07       1.39224630e-05      -2.47701872e-05 
      -6.72760994e-07       1.39224622e-05      -2.47701852e-05 
       1.86062123e-07       1.39224631e-05      -2.47701878e-05 
       6.70961528e-07       1.39224639e-05      -2.47701897e-05 
      -1.90772014e-07       1.46032802e-05      -2.59757981e-05 
      -6.83578731e-07       1.46032793e-05      -2.59757961e-05 
       1.88947100e-07       1.46032803e-05      -2.59757987e-05 
       6.81753817e-07       1.46032812e-05      -2.59758007e-05 
      -1.90772014e-07       1.46032802e-05      -2.59757981e-05 
      -6.83578731e-07       1.46032793e-05      -2.59757961e-05 
       1.88947100e-07       1.46032803e-05      -2.59757987e-05 
       6.81753817e-07       1.46032812e-05      -2.59758007e-05 
      -1.93578108e-07       1.52949291e-05      -2.72001661e-05 
      -6.94033444e-07       1.52949282e-05      -2.72001640e-05 
       1.91727457e-07       1.52949293e-05      -2.72001667e-05 
       6.92182793e-07       1.52949301e-05      -2.72001688e-05 
      -1.93578108e-07       1.52949291e-05      -2.72001661e-05 
      -6.94033444e-07       1.52949282e-05      -2.72001640e-05 