# vtk DataFile Version 2.0
./output/onsasExample_BladeCantileverBeamNoPitch_windVel3DDynamic 3D/onsasExample_BladeCantileverBeamNoPitch_windVel3DDynamic 3D_0343.vtk
ASCII
DATASET UNSTRUCTURED_GRID

POINTS 800 float
      -2.302577e-23      -7.180703e-02      -7.180703e-02 
       3.882537e-24       7.180703e-02      -7.180703e-02 
       2.302577e-23       7.180703e-02       7.180703e-02 
      -3.882537e-24      -7.180703e-02       7.180703e-02 
       2.000000e-01      -7.180702e-02      -7.180706e-02 
       2.000000e-01       7.180705e-02      -7.180706e-02 
       2.000000e-01       7.180705e-02       7.180700e-02 
       2.000000e-01      -7.180702e-02       7.180700e-02 
       2.000000e-01      -7.180702e-02      -7.180706e-02 
       2.000000e-01       7.180705e-02      -7.180706e-02 
       2.000000e-01       7.180705e-02       7.180700e-02 
       2.000000e-01      -7.180702e-02       7.180700e-02 
       4.000000e-01      -7.180698e-02      -7.180715e-02 
       3.999999e-01       7.180709e-02      -7.180715e-02 
       4.000000e-01       7.180709e-02       7.180692e-02 
       4.000001e-01      -7.180698e-02       7.180692e-02 
       4.000000e-01      -7.180698e-02      -7.180715e-02 
       3.999999e-01       7.180709e-02      -7.180715e-02 
       4.000000e-01       7.180709e-02       7.180692e-02 
       4.000001e-01      -7.180698e-02       7.180692e-02 
       6.000000e-01      -7.180691e-02      -7.180729e-02 
       5.999999e-01       7.180716e-02      -7.180729e-02 
       6.000000e-01       7.180716e-02       7.180678e-02 
       6.000001e-01      -7.180691e-02       7.180678e-02 
       6.000000e-01      -7.180691e-02      -7.180729e-02 
       5.999999e-01       7.180716e-02      -7.180729e-02 
       6.000000e-01       7.180716e-02       7.180678e-02 
       6.000001e-01      -7.180691e-02       7.180678e-02 
       8.000000e-01      -7.180682e-02      -7.180749e-02 
       7.999999e-01       7.180725e-02      -7.180749e-02 
       8.000000e-01       7.180725e-02       7.180658e-02 
       8.000001e-01      -7.180682e-02       7.180658e-02 
       8.000000e-01      -7.180682e-02      -7.180749e-02 
       7.999999e-01       7.180725e-02      -7.180749e-02 
       8.000000e-01       7.180725e-02       7.180658e-02 
       8.000001e-01      -7.180682e-02       7.180658e-02 
       9.999999e-01      -7.180670e-02      -7.180774e-02 
       9.999999e-01       7.180737e-02      -7.180774e-02 
       1.000000e+00       7.180737e-02       7.180633e-02 
       1.000000e+00      -7.180670e-02       7.180633e-02 
       9.999999e-01      -7.180670e-02      -7.180774e-02 
       9.999999e-01       7.180737e-02      -7.180774e-02 
       1.000000e+00       7.180737e-02       7.180633e-02 
       1.000000e+00      -7.180670e-02       7.180633e-02 
       1.200000e+00      -7.180655e-02      -7.180804e-02 
       1.200000e+00       7.180752e-02      -7.180804e-02 
       1.200000e+00       7.180752e-02       7.180602e-02 
       1.200000e+00      -7.180655e-02       7.180602e-02 
       1.200000e+00      -7.180655e-02      -7.180804e-02 
       1.200000e+00       7.180752e-02      -7.180804e-02 
       1.200000e+00       7.180752e-02       7.180602e-02 
       1.200000e+00      -7.180655e-02       7.180602e-02 
       1.400000e+00      -7.180638e-02      -7.180840e-02 
       1.400000e+00       7.180769e-02      -7.180840e-02 
       1.400000e+00       7.180769e-02       7.180567e-02 
       1.400000e+00      -7.180638e-02       7.180567e-02 
       1.400000e+00      -7.180638e-02      -7.180840e-02 
       1.400000e+00       7.180769e-02      -7.180840e-02 
       1.400000e+00       7.180769e-02       7.180567e-02 
       1.400000e+00      -7.180638e-02       7.180567e-02 
       1.600000e+00      -7.180619e-02      -7.180881e-02 
       1.600000e+00       7.180788e-02      -7.180881e-02 
       1.600000e+00       7.180788e-02       7.180526e-02 
       1.600000e+00      -7.180619e-02       7.180526e-02 
       1.600000e+00      -7.180619e-02      -7.180881e-02 
       1.600000e+00       7.180788e-02      -7.180881e-02 
       1.600000e+00       7.180788e-02       7.180526e-02 
       1.600000e+00      -7.180619e-02       7.180526e-02 
       1.800000e+00      -7.180597e-02      -7.180926e-02 
       1.800000e+00       7.180810e-02      -7.180926e-02 
       1.800000e+00       7.180810e-02       7.180480e-02 
       1.800000e+00      -7.180597e-02       7.180480e-02 
       1.800000e+00      -7.180597e-02      -7.180926e-02 
       1.800000e+00       7.180810e-02      -7.180926e-02 
       1.800000e+00       7.180810e-02       7.180480e-02 
       1.800000e+00      -7.180597e-02       7.180480e-02 
       2.000000e+00      -7.180573e-02      -7.180977e-02 
       2.000000e+00       7.180834e-02      -7.180977e-02 
       2.000000e+00       7.180834e-02       7.180430e-02 
       2.000000e+00      -7.180573e-02       7.180430e-02 
       2.000000e+00      -7.180573e-02      -7.180977e-02 
       2.000000e+00       7.180834e-02      -7.180977e-02 
       2.000000e+00       7.180834e-02       7.180430e-02 
       2.000000e+00      -7.180573e-02       7.180430e-02 
       2.200000e+00      -7.180547e-02      -7.181032e-02 
       2.200000e+00       7.180860e-02      -7.181032e-02 
       2.200000e+00       7.180860e-02       7.180374e-02 
       2.200000e+00      -7.180547e-02       7.180374e-02 
       2.200000e+00      -7.180547e-02      -7.181032e-02 
       2.200000e+00       7.180860e-02      -7.181032e-02 
       2.200000e+00       7.180860e-02       7.180374e-02 
       2.200000e+00      -7.180547e-02       7.180374e-02 
       2.400000e+00      -7.180518e-02      -7.181092e-02 
       2.400000e+00       7.180889e-02      -7.181092e-02 
       2.400000e+00       7.180889e-02       7.180314e-02 
       2.400000e+00      -7.180518e-02       7.180314e-02 
       2.400000e+00      -7.180518e-02      -7.181092e-02 
       2.400000e+00       7.180889e-02      -7.181092e-02 
       2.400000e+00       7.180889e-02       7.180314e-02 
       2.400000e+00      -7.180518e-02       7.180314e-02 
       2.600000e+00      -7.180487e-02      -7.181157e-02 
       2.600000e+00       7.180919e-02      -7.181157e-02 
       2.600000e+00       7.180919e-02       7.180250e-02 
       2.600000e+00      -7.180487e-02       7.180250e-02 
       2.600000e+00      -7.180487e-02      -7.181157e-02 
       2.600000e+00       7.180919e-02      -7.181157e-02 
       2.600000e+00       7.180919e-02       7.180250e-02 
       2.600000e+00      -7.180487e-02       7.180250e-02 
       2.800000e+00      -7.180454e-02      -7.181226e-02 
       2.800000e+00       7.180952e-02      -7.181226e-02 
       2.800000e+00       7.180952e-02       7.180181e-02 
       2.800000e+00      -7.180454e-02       7.180181e-02 
       2.800000e+00      -7.180454e-02      -7.181226e-02 
       2.800000e+00       7.180952e-02      -7.181226e-02 
       2.800000e+00       7.180952e-02       7.180181e-02 
       2.800000e+00      -7.180454e-02       7.180181e-02 
       3.000000e+00      -7.180420e-02      -7.181299e-02 
       3.000000e+00       7.180987e-02      -7.181299e-02 
       3.000000e+00       7.180987e-02       7.180107e-02 
       3.000000e+00      -7.180420e-02       7.180107e-02 
       3.000000e+00      -7.180420e-02      -7.181299e-02 
       3.000000e+00       7.180987e-02      -7.181299e-02 
       3.000000e+00       7.180987e-02       7.180107e-02 
       3.000000e+00      -7.180420e-02       7.180107e-02 
       3.200000e+00      -7.180383e-02      -7.181377e-02 
       3.200000e+00       7.181024e-02      -7.181377e-02 
       3.200000e+00       7.181024e-02       7.180030e-02 
       3.200000e+00      -7.180383e-02       7.180030e-02 
       3.200000e+00      -7.180383e-02      -7.181377e-02 
       3.200000e+00       7.181024e-02      -7.181377e-02 
       3.200000e+00       7.181024e-02       7.180030e-02 
       3.200000e+00      -7.180383e-02       7.180030e-02 
       3.400000e+00      -7.180344e-02      -7.181459e-02 
       3.400000e+00       7.181063e-02      -7.181459e-02 
       3.400000e+00       7.181063e-02       7.179948e-02 
       3.400000e+00      -7.180344e-02       7.179948e-02 
       3.400000e+00      -7.180344e-02      -7.181459e-02 
       3.400000e+00       7.181063e-02      -7.181459e-02 
       3.400000e+00       7.181063e-02       7.179948e-02 
       3.400000e+00      -7.180344e-02       7.179948e-02 
       3.600000e+00      -7.180303e-02      -7.181545e-02 
       3.600000e+00       7.181104e-02      -7.181545e-02 
       3.600000e+00       7.181104e-02       7.179862e-02 
       3.600000e+00      -7.180303e-02       7.179862e-02 
       3.600000e+00      -7.180303e-02      -7.181545e-02 
       3.600000e+00       7.181104e-02      -7.181545e-02 
       3.600000e+00       7.181104e-02       7.179862e-02 
       3.600000e+00      -7.180303e-02       7.179862e-02 
       3.800000e+00      -7.180260e-02      -7.181635e-02 
       3.800000e+00       7.181146e-02      -7.181635e-02 
       3.800000e+00       7.181146e-02       7.179772e-02 
       3.800000e+00      -7.180260e-02       7.179772e-02 
       3.800000e+00      -7.180260e-02      -7.181635e-02 
       3.800000e+00       7.181146e-02      -7.181635e-02 
       3.800000e+00       7.181146e-02       7.179772e-02 
       3.800000e+00      -7.180260e-02       7.179772e-02 
       4.000000e+00      -7.180216e-02      -7.181729e-02 
       3.999999e+00       7.181191e-02      -7.181729e-02 
       4.000000e+00       7.181191e-02       7.179678e-02 
       4.000001e+00      -7.180216e-02       7.179678e-02 
       4.000000e+00      -7.180216e-02      -7.181729e-02 
       3.999999e+00       7.181191e-02      -7.181729e-02 
       4.000000e+00       7.181191e-02       7.179678e-02 
       4.000001e+00      -7.180216e-02       7.179678e-02 
       4.200000e+00      -7.180170e-02      -7.181827e-02 
[...]
POINT_DATA       800 
VECTORS Displacements float
      -2.30257724e-23       1.38777878e-17       0.00000000e+00 
       3.88253724e-24      -1.38777878e-17       0.00000000e+00 
       2.30257724e-23      -1.38777878e-17       0.00000000e+00 
      -3.88253724e-24       1.38777878e-17       0.00000000e+00 
      -1.08688365e-08       1.38356538e-08      -2.89552957e-08 
      -3.06755860e-08       1.38356524e-08      -2.89552587e-08 
       1.07812446e-08       1.38356212e-08      -2.89552647e-08 
       3.05879942e-08       1.38356226e-08      -2.89553016e-08 
      -1.08688365e-08       1.38356538e-08      -2.89552957e-08 
      -3.06755860e-08       1.38356524e-08      -2.89552587e-08 
       1.07812446e-08       1.38356212e-08      -2.89552647e-08 
       3.05879942e-08       1.38356226e-08      -2.89553016e-08 
      -2.15462115e-08       5.49906819e-08      -1.15113560e-07 
      -6.07806778e-08       5.49906765e-08      -1.15113480e-07 
       2.13708355e-08       5.49906196e-08      -1.15113504e-07 
       6.06053019e-08       5.49906250e-08      -1.15113583e-07 
      -2.15462115e-08       5.49906819e-08      -1.15113560e-07 
      -6.07806778e-08       5.49906765e-08      -1.15113480e-07 
       2.13708355e-08       5.49906196e-08      -1.15113504e-07 
       6.06053019e-08       5.49906250e-08      -1.15113583e-07 
      -3.20321232e-08       1.22937235e-07      -2.57413409e-07 
      -9.03152735e-08       1.22937223e-07      -2.57413282e-07 
       3.17687746e-08       1.22937146e-07      -2.57413334e-07 
       9.00519249e-08       1.22937158e-07      -2.57413461e-07 
      -3.20321232e-08       1.22937235e-07      -2.57413409e-07 
      -9.03152735e-08       1.22937223e-07      -2.57413282e-07 
       3.17687746e-08       1.22937146e-07      -2.57413334e-07 
       9.00519249e-08       1.22937158e-07      -2.57413461e-07 
      -4.23265698e-08       2.17147465e-07      -4.54793461e-07 
      -1.19279371e-07       2.17147444e-07      -4.54793281e-07 
       4.19750636e-08       2.17147351e-07      -4.54793372e-07 
       1.18927865e-07       2.17147372e-07      -4.54793551e-07 
      -4.23265698e-08       2.17147465e-07      -4.54793461e-07 
      -1.19279371e-07       2.17147444e-07      -4.54793281e-07 
       4.19750636e-08       2.17147351e-07      -4.54793372e-07 
       1.18927865e-07       2.17147372e-07      -4.54793551e-07 
      -5.24295497e-08       3.37093521e-07      -7.06192331e-07 
      -1.47672969e-07       3.37093490e-07      -7.06192094e-07 
       5.19897043e-08       3.37093386e-07      -7.06192233e-07 
       1.47233124e-07       3.37093417e-07      -7.06192470e-07 
      -5.24295497e-08       3.37093521e-07      -7.06192331e-07 
      -1.47672969e-07       3.37093490e-07      -7.06192094e-07 
       5.19897043e-08       3.37093386e-07      -7.06192233e-07 
       1.47233124e-07       3.37093417e-07      -7.06192470e-07 
      -6.23410608e-08       4.82247556e-07      -1.01054864e-06 
      -1.75496066e-07       4.82247511e-07      -1.01054834e-06 
       6.18126987e-08       4.82247401e-07      -1.01054853e-06 
       1.74967704e-07       4.82247445e-07      -1.01054883e-06 
      -6.23410608e-08       4.82247556e-07      -1.01054864e-06 
      -1.75496066e-07       4.82247511e-07      -1.01054834e-06 
       6.18126987e-08       4.82247401e-07      -1.01054853e-06 
       1.74967704e-07       4.82247445e-07      -1.01054883e-06 
      -7.20611011e-08       6.52081720e-07      -1.36680099e-06 
      -2.02748659e-07       6.52081660e-07      -1.36680063e-06 
       7.14440485e-08       6.52081547e-07      -1.36680089e-06 
       2.02131607e-07       6.52081606e-07      -1.36680126e-06 
      -7.20611011e-08       6.52081720e-07      -1.36680099e-06 
      -2.02748659e-07       6.52081660e-07      -1.36680063e-06 
       7.14440485e-08       6.52081547e-07      -1.36680089e-06 
       2.02131607e-07       6.52081606e-07      -1.36680126e-06 
      -8.15896695e-08       8.46068164e-07      -1.77388802e-06 
      -2.29430748e-07       8.46068088e-07      -1.77388759e-06 
       8.08837550e-08       8.46067975e-07      -1.77388792e-06 
       2.28724833e-07       8.46068051e-07      -1.77388836e-06 
      -8.15896695e-08       8.46068164e-07      -1.77388802e-06 
      -2.29430748e-07       8.46068088e-07      -1.77388759e-06 
       8.08837550e-08       8.46067975e-07      -1.77388792e-06 
       2.28724833e-07       8.46068051e-07      -1.77388836e-06 
      -9.09267635e-08       1.06367904e-06      -2.23074833e-06 
      -2.55542329e-07       1.06367894e-06      -2.23074783e-06 
       9.01318207e-08       1.06367884e-06      -2.23074824e-06 
       2.54747386e-07       1.06367893e-06      -2.23074875e-06 
      -9.09267635e-08       1.06367904e-06      -2.23074833e-06 
      -2.55542329e-07       1.06367894e-06      -2.23074783e-06 
       9.01318207e-08       1.06367884e-06      -2.23074824e-06 
       2.54747386e-07       1.06367893e-06      -2.23074875e-06 
      -1.00072382e-07       1.30438650e-06      -2.73632055e-06 
      -2.81083402e-07       1.30438638e-06      -2.73631997e-06 
       9.91882469e-08       1.30438628e-06      -2.73632047e-06 
       2.80199267e-07       1.30438639e-06      -2.73632105e-06 
      -1.00072382e-07       1.30438650e-06      -2.73632055e-06 
      -2.81083402e-07       1.30438638e-06      -2.73631997e-06 
       9.91882469e-08       1.30438628e-06      -2.73632047e-06 
       2.80199267e-07       1.30438639e-06      -2.73632105e-06 
      -1.09019680e-07       1.56767174e-06      -3.28955953e-06 
      -3.06066794e-07       1.56767160e-06      -3.28955889e-06 
       1.08076010e-07       1.56767153e-06      -3.28955949e-06 
       3.05123125e-07       1.56767166e-06      -3.28956013e-06 
      -1.09019680e-07       1.56767174e-06      -3.28955953e-06 
      -3.06066794e-07       1.56767160e-06      -3.28955889e-06 
       1.08076010e-07       1.56767153e-06      -3.28955949e-06 
       3.05123125e-07       1.56767166e-06      -3.28956013e-06 
      -1.17793006e-07       1.85305309e-06      -3.88948954e-06 
      -3.30537155e-07       1.85305294e-06      -3.88948883e-06 
       1.16789374e-07       1.85305289e-06      -3.88948953e-06 
       3.29533523e-07       1.85305305e-06      -3.88949024e-06 
      -1.17793006e-07       1.85305309e-06      -3.88948954e-06 
      -3.30537155e-07       1.85305294e-06      -3.88948883e-06 
       1.16789374e-07       1.85305289e-06      -3.88948953e-06 
       3.29533523e-07       1.85305305e-06      -3.88949024e-06 
      -1.26392360e-07       2.16005838e-06      -4.53515325e-06 
      -3.54494481e-07       2.16005820e-06      -4.53515247e-06 
       1.25328342e-07       2.16005818e-06      -4.53515327e-06 
       3.53430464e-07       2.16005836e-06      -4.53515405e-06 
      -1.26392360e-07       2.16005838e-06      -4.53515325e-06 
      -3.54494481e-07       2.16005820e-06      -4.53515247e-06 
       1.25328342e-07       2.16005818e-06      -4.53515327e-06 
       3.53430464e-07       2.16005836e-06      -4.53515405e-06 
      -1.34817733e-07       2.48821542e-06      -5.22559332e-06 
      -3.77938767e-07       2.48821521e-06      -5.22559246e-06 
       1.33692920e-07       2.48821522e-06      -5.22559337e-06 
       3.76813954e-07       2.48821543e-06      -5.22559423e-06 
      -1.34817733e-07       2.48821542e-06      -5.22559332e-06 
      -3.77938767e-07       2.48821521e-06      -5.22559246e-06 
       1.33692920e-07       2.48821522e-06      -5.22559337e-06 
       3.76813954e-07       2.48821543e-06      -5.22559423e-06 
      -1.43069125e-07       2.83705202e-06      -5.95985242e-06 
      -4.00870010e-07       2.83705178e-06      -5.95985149e-06 
       1.41883110e-07       2.83705183e-06      -5.95985251e-06 
       3.99683995e-07       2.83705206e-06      -5.95985344e-06 
      -1.43069125e-07       2.83705202e-06      -5.95985242e-06 
      -4.00870010e-07       2.83705178e-06      -5.95985149e-06 
       1.41883110e-07       2.83705183e-06      -5.95985251e-06 
       3.99683995e-07       2.83705206e-06      -5.95985344e-06 
      -1.51146528e-07       3.20609600e-06      -6.73697322e-06 
      -4.23288204e-07       3.20609574e-06      -6.73697221e-06 
       1.49898918e-07       3.20609582e-06      -6.73697336e-06 
       4.22040594e-07       3.20609608e-06      -6.73697436e-06 
      -1.51146528e-07       3.20609600e-06      -6.73697322e-06 
      -4.23288204e-07       3.20609574e-06      -6.73697221e-06 
       1.49898918e-07       3.20609582e-06      -6.73697336e-06 
       4.22040594e-07       3.20609608e-06      -6.73697436e-06 
      -1.59049938e-07       3.59487517e-06      -7.55599839e-06 
      -4.45193344e-07       3.59487489e-06      -7.55599731e-06 
       1.57740348e-07       3.59487501e-06      -7.55599858e-06 
       4.43883754e-07       3.59487529e-06      -7.55599966e-06 
      -1.59049938e-07       3.59487517e-06      -7.55599839e-06 
      -4.45193344e-07       3.59487489e-06      -7.55599731e-06 
       1.57740348e-07       3.59487501e-06      -7.55599858e-06 
       4.43883754e-07       3.59487529e-06      -7.55599966e-06 
      -1.66779352e-07       4.00291736e-06      -8.41597060e-06 
      -4.66585427e-07       4.00291705e-06      -8.41596944e-06 
       1.65407406e-07       4.00291721e-06      -8.41597084e-06 
       4.65213481e-07       4.00291752e-06      -8.41597199e-06 
      -1.66779352e-07       4.00291736e-06      -8.41597060e-06 
      -4.66585427e-07       4.00291705e-06      -8.41596944e-06 
       1.65407406e-07       4.00291721e-06      -8.41597084e-06 
       4.65213481e-07       4.00291752e-06      -8.41597199e-06 
      -1.74334765e-07       4.42975039e-06      -9.31593253e-06 
      -4.87464447e-07       4.42975004e-06      -9.31593129e-06 
       1.72900094e-07       4.42975024e-06      -9.31593281e-06 
       4.86029777e-07       4.42975059e-06      -9.31593405e-06 
      -1.74334765e-07       4.42975039e-06      -9.31593253e-06 
      -4.87464447e-07       4.42975004e-06      -9.31593129e-06 
       1.72900094e-07       4.42975024e-06      -9.31593281e-06 
       4.86029777e-07       4.42975059e-06      -9.31593405e-06 
      -1.81716173e-07       4.87490206e-06      -1.02549268e-05 
      -5.07830403e-07       4.87490169e-06      -1.02549255e-05 
       1.80218418e-07       4.87490193e-06      -1.02549272e-05 
       5.06332648e-07       4.87490230e-06      -1.02549285e-05 
      -1.81716173e-07       4.87490206e-06      -1.02549268e-05 
      -5.07830403e-07       4.87490169e-06      -1.02549255e-05 
       1.80218418e-07       4.87490193e-06      -1.02549272e-05 
       5.06332648e-07       4.87490230e-06      -1.02549285e-05 
      -1.88921884e-07       5.33790955e-06      -1.12320137e-05 
      -5.27701730e-07       5.33790915e-06      -1.12320123e-05 
       1.87381759e-07       5.33790944e-06      -1.12320141e-05 
       5.26161604e-07       5.33790984e-06      -1.12320155e-05 
      -1.88921884e-07       5.33790955e-06      -1.12320137e-05 
      -5.27701730e-07       5.33790915e-06      -1.12320123e-05 
       1.87381759e-07       5.33790944e-06      -1.12320141e-05 
       5.26161604e-07       5.33790984e-06      -1.12320155e-05 
      -1.95971454e-07       5.81834728e-06      -1.22463237e-05 
      -5.47117959e-07       5.81834685e-06      -1.22463222e-05 
       1.94388441e-07       5.81834719e-06      -1.22463242e-05 
       5.45534946e-07       5.81834762e-06      -1.22463256e-05 
      -1.95971454e-07       5.81834728e-06      -1.22463237e-05 
      -5.47117959e-07       5.81834685e-06      -1.22463222e-05 
       1.94388441e-07       5.81834719e-06      -1.22463242e-05 
       5.45534946e-07       5.81834762e-06      -1.22463256e-05 
      -2.02864875e-07       6.31579891e-06      -1.32970048e-05 
      -5.66079082e-07       6.31579845e-06      -1.32970033e-05 
       2.01238474e-07       6.31579885e-06      -1.32970053e-05 
       5.64452681e-07       6.31579931e-06      -1.32970069e-05 
      -2.02864875e-07       6.31579891e-06      -1.32970048e-05 
      -5.66079082e-07       6.31579845e-06      -1.32970033e-05 
       2.01238474e-07       6.31579885e-06      -1.32970053e-05 
       5.64452681e-07       6.31579931e-06      -1.32970069e-05 
      -2.09602144e-07       6.82984812e-06      -1.43832051e-05 
      -5.84585097e-07       6.82984763e-06      -1.43832035e-05 
       2.07931859e-07       6.82984808e-06      -1.43832057e-05 
       5.82914812e-07       6.82984857e-06      -1.43832073e-05 
      -2.09602144e-07       6.82984812e-06      -1.43832051e-05 
      -5.84585097e-07       6.82984763e-06      -1.43832035e-05 
       2.07931859e-07       6.82984808e-06      -1.43832057e-05 
       5.82914812e-07       6.82984857e-06      -1.43832073e-05 
      -2.16183253e-07       7.36007857e-06      -1.55040727e-05 
      -6.02635994e-07       7.36007805e-06      -1.55040710e-05 
       2.14468606e-07       7.36007855e-06      -1.55040733e-05 
       6.00921347e-07       7.36007907e-06      -1.55040750e-05 
      -2.16183253e-07       7.36007857e-06      -1.55040727e-05 
      -6.02635994e-07       7.36007805e-06      -1.55040710e-05 
       2.14468606e-07       7.36007855e-06      -1.55040733e-05 
       6.00921347e-07       7.36007907e-06      -1.55040750e-05 
      -2.22608196e-07       7.90607392e-06      -1.66587555e-05 
      -6.20231770e-07       7.90607337e-06      -1.66587538e-05 
       2.20848718e-07       7.90607393e-06      -1.66587562e-05 
       6.18472292e-07       7.90607448e-06      -1.66587580e-05 
      -2.22608196e-07       7.90607392e-06      -1.66587555e-05 
      -6.20231770e-07       7.90607337e-06      -1.66587538e-05 
       2.20848718e-07       7.90607393e-06      -1.66587562e-05 
       6.18472292e-07       7.90607448e-06      -1.66587580e-05 
      -2.28876967e-07       8.46741784e-06      -1.78464018e-05 
      -6.37372418e-07       8.46741726e-06      -1.78463999e-05 
       2.27072202e-07       8.46741788e-06      -1.78464025e-05 
       6.35567653e-07       8.46741846e-06      -1.78464044e-05 
      -2.28876967e-07       8.46741784e-06      -1.78464018e-05 
      -6.37372418e-07       8.46741726e-06      -1.78463999e-05 
       2.27072202e-07       8.46741788e-06      -1.78464025e-05 
       6.35567653e-07       8.46741846e-06      -1.78464044e-05 
      -2.34989559e-07       9.04369401e-06      -1.90661594e-05 
      -6.54057930e-07       9.04369339e-06      -1.90661575e-05 
       2.33139065e-07       9.04369406e-06      -1.90661602e-05 
       6.52207436e-07       9.04369467e-06      -1.90661621e-05 
      -2.34989559e-07       9.04369401e-06      -1.90661594e-05 
      -6.54057930e-07       9.04369339e-06      -1.90661575e-05 
       2.33139065e-07       9.04369406e-06      -1.90661602e-05 
       6.52207436e-07       9.04369467e-06      -1.90661621e-05 
      -2.40945970e-07       9.63448607e-06      -2.03171765e-05 
      -6.70288304e-07       9.63448543e-06      -2.03171745e-05 
       2.39049311e-07       9.63448615e-06      -2.03171774e-05 
       6.68391645e-07       9.63448680e-06      -2.03171794e-05 
      -2.40945970e-07       9.63448607e-06      -2.03171765e-05 
      -6.70288304e-07       9.63448543e-06      -2.03171745e-05 
       2.39049311e-07       9.63448615e-06      -2.03171774e-05 
       6.68391645e-07       9.63448680e-06      -2.03171794e-05 
      -2.46746191e-07       1.02393777e-05      -2.15986011e-05 
      -6.86063531e-07       1.02393770e-05      -2.15985990e-05 
       2.44802948e-07       1.02393778e-05      -2.15986021e-05 
       6.84120288e-07       1.02393785e-05      -2.15986041e-05 
      -2.46746191e-07       1.02393777e-05      -2.15986011e-05 
      -6.86063531e-07       1.02393770e-05      -2.15985990e-05 
       2.44802948e-07       1.02393778e-05      -2.15986021e-05 
       6.84120288e-07       1.02393785e-05      -2.15986041e-05 
      -2.52391970e-07       1.08579620e-05      -2.29095990e-05 
      -7.01405495e-07       1.08579613e-05      -2.29095968e-05 
       2.50416014e-07       1.08579621e-05      -2.29096000e-05 
       6.99429539e-07       1.08579628e-05      -2.29096021e-05 
      -2.52391970e-07       1.08579620e-05      -2.29095990e-05 
      -7.01405495e-07       1.08579613e-05      -2.29095968e-05 
       2.50416014e-07       1.08579621e-05      -2.29096000e-05 
       6.99429539e-07       1.08579628e-05      -2.29096021e-05 
      -2.57899371e-07       1.14898690e-05      -2.42494058e-05 
      -7.16349998e-07       1.14898682e-05      -2.42494036e-05 
       2.55890201e-07       1.14898691e-05      -2.42494069e-05 
       7.14340828e-07       1.14898699e-05      -2.42494091e-05 
      -2.57899371e-07       1.14898690e-05      -2.42494058e-05 
      -7.16349998e-07       1.14898682e-05      -2.42494036e-05 
       2.55890201e-07       1.14898691e-05      -2.42494069e-05 
       7.14340828e-07       1.14898699e-05      -2.42494091e-05 
      -2.63268388e-07       1.21347379e-05      -2.56172746e-05 
      -7.30897034e-07       1.21347371e-05      -2.56172724e-05 
       2.61225518e-07       1.21347381e-05      -2.56172758e-05 
       7.28854163e-07       1.21347388e-05      -2.56172781e-05 
      -2.63268388e-07       1.21347379e-05      -2.56172746e-05 
      -7.30897034e-07       1.21347371e-05      -2.56172724e-05 
       2.61225518e-07       1.21347381e-05      -2.56172758e-05 
       7.28854163e-07       1.21347388e-05      -2.56172781e-05 
      -2.68499018e-07       1.27922078e-05      -2.70124586e-05 
      -7.45046596e-07       1.27922071e-05      -2.70124563e-05 
       2.66421967e-07       1.27922081e-05      -2.70124598e-05 
       7.42969546e-07       1.27922089e-05      -2.70124622e-05 
      -2.68499018e-07       1.27922078e-05      -2.70124586e-05 
      -7.45046596e-07       1.27922071e-05      -2.70124563e-05 
       2.66421967e-07       1.27922081e-05      -2.70124598e-05 
       7.42969546e-07       1.27922089e-05      -2.70124622e-05 
      -2.73591251e-07       1.34619181e-05      -2.84342108e-05 
      -7.58798679e-07       1.34619173e-05      -2.84342084e-05 
       2.71479559e-07       1.34619184e-05      -2.84342121e-05 
       7.56686987e-07       1.34619192e-05      -2.84342145e-05 
      -2.73591251e-07       1.34619181e-05      -2.84342108e-05 
      -7.58798679e-07       1.34619173e-05      -2.84342084e-05 
       2.71479559e-07       1.34619184e-05      -2.84342121e-05 
       7.56686987e-07       1.34619192e-05      -2.84342145e-05 
      -2.78545081e-07       1.41435079e-05      -2.98817843e-05 
      -7.72153274e-07       1.41435071e-05      -2.98817818e-05 
       2.76398297e-07       1.41435082e-05      -2.98817857e-05 
       7.70006490e-07       1.41435090e-05      -2.98817882e-05 
      -2.78545081e-07       1.41435079e-05      -2.98817843e-05 
      -7.72153274e-07       1.41435071e-05      -2.98817818e-05 
       2.76398297e-07       1.41435082e-05      -2.98817857e-05 
       7.70006490e-07       1.41435090e-05      -2.98817882e-05 
      -2.83360503e-07       1.48366163e-05      -3.13544322e-05 
      -7.85110377e-07       1.48366155e-05      -3.13544296e-05 
       2.81178191e-07       1.48366166e-05      -3.13544336e-05 
       7.82928064e-07       1.48366175e-05      -3.13544361e-05 
      -2.83360503e-07       1.48366163e-05      -3.13544322e-05 
      -7.85110377e-07       1.48366155e-05      -3.13544296e-05 
       2.81178191e-07       1.48366166e-05      -3.13544336e-05 
       7.82928064e-07       1.48366175e-05      -3.13544361e-05 
      -2.88037509e-07       1.55408827e-05      -3.28514075e-05 
      -7.97669978e-07       1.55408818e-05      -3.28514049e-05 
       2.85819246e-07       1.55408830e-05      -3.28514090e-05 
       7.95451715e-07       1.55408839e-05      -3.28514116e-05 
      -2.88037509e-07       1.55408827e-05      -3.28514075e-05 
      -7.97669978e-07       1.55408818e-05      -3.28514049e-05 