# vtk DataFile Version 2.0
./output/onsasExample_BladeCantileverBeamNoPitch_windVel3DDynamic 3D/onsasExample_BladeCantileverBeamNoPitch_windVel3DDynamic 3D_0125.vtk
ASCII
DATASET UNSTRUCTURED_GRID

POINTS 800 float
       9.399427e-26      -7.180703e-02      -7.180703e-02 
       2.497481e-23       7.180703e-02      -7.180703e-02 
      -9.399427e-26       7.180703e-02       7.180703e-02 
      -2.497481e-23      -7.180703e-02       7.180703e-02 
       2.000000e-01      -7.180702e-02      -7.180706e-02 
       2.000000e-01       7.180705e-02      -7.180706e-02 
       2.000000e-01       7.180705e-02       7.180700e-02 
       2.000000e-01      -7.180702e-02       7.180700e-02 
       2.000000e-01      -7.180702e-02      -7.180706e-02 
       2.000000e-01       7.180705e-02      -7.180706e-02 
       2.000000e-01       7.180705e-02       7.180700e-02 
       2.000000e-01      -7.180702e-02       7.180700e-02 
       4.000000e-01      -7.180698e-02      -7.180715e-02 
       3.999999e-01       7.180709e-02      -7.180715e-02 
       4.000000e-01       7.180709e-02       7.180692e-02 
       4.000001e-01      -7.180698e-02       7.180692e-02 
       4.000000e-01      -7.180698e-02      -7.180715e-02 
       3.999999e-01       7.180709e-02      -7.180715e-02 
       4.000000e-01       7.180709e-02       7.180692e-02 
       4.000001e-01      -7.180698e-02       7.180692e-02 
       6.000000e-01      -7.180691e-02      -7.180729e-02 
       5.999999e-01       7.180715e-02      -7.180729e-02 
       6.000000e-01       7.180715e-02       7.180678e-02 
       6.000001e-01      -7.180691e-02       7.180678e-02 
       6.000000e-01      -7.180691e-02      -7.180729e-02 
       5.999999e-01       7.180715e-02      -7.180729e-02 
       6.000000e-01       7.180715e-02       7.180678e-02 
       6.000001e-01      -7.180691e-02       7.180678e-02 
       8.000000e-01      -7.180682e-02      -7.180749e-02 
       7.999999e-01       7.180725e-02      -7.180749e-02 
       8.000000e-01       7.180725e-02       7.180658e-02 
       8.000001e-01      -7.180682e-02       7.180658e-02 
       8.000000e-01      -7.180682e-02      -7.180749e-02 
       7.999999e-01       7.180725e-02      -7.180749e-02 
       8.000000e-01       7.180725e-02       7.180658e-02 
       8.000001e-01      -7.180682e-02       7.180658e-02 
       9.999999e-01      -7.180670e-02      -7.180774e-02 
       9.999999e-01       7.180737e-02      -7.180774e-02 
       1.000000e+00       7.180737e-02       7.180633e-02 
       1.000000e+00      -7.180670e-02       7.180633e-02 
       9.999999e-01      -7.180670e-02      -7.180774e-02 
       9.999999e-01       7.180737e-02      -7.180774e-02 
       1.000000e+00       7.180737e-02       7.180633e-02 
       1.000000e+00      -7.180670e-02       7.180633e-02 
       1.200000e+00      -7.180656e-02      -7.180804e-02 
       1.200000e+00       7.180751e-02      -7.180804e-02 
       1.200000e+00       7.180751e-02       7.180602e-02 
       1.200000e+00      -7.180656e-02       7.180602e-02 
       1.200000e+00      -7.180656e-02      -7.180804e-02 
       1.200000e+00       7.180751e-02      -7.180804e-02 
       1.200000e+00       7.180751e-02       7.180602e-02 
       1.200000e+00      -7.180656e-02       7.180602e-02 
       1.400000e+00      -7.180639e-02      -7.180840e-02 
       1.400000e+00       7.180768e-02      -7.180840e-02 
       1.400000e+00       7.180768e-02       7.180567e-02 
       1.400000e+00      -7.180639e-02       7.180567e-02 
       1.400000e+00      -7.180639e-02      -7.180840e-02 
       1.400000e+00       7.180768e-02      -7.180840e-02 
       1.400000e+00       7.180768e-02       7.180567e-02 
       1.400000e+00      -7.180639e-02       7.180567e-02 
       1.600000e+00      -7.180620e-02      -7.180880e-02 
       1.600000e+00       7.180787e-02      -7.180880e-02 
       1.600000e+00       7.180787e-02       7.180526e-02 
       1.600000e+00      -7.180620e-02       7.180526e-02 
       1.600000e+00      -7.180620e-02      -7.180880e-02 
       1.600000e+00       7.180787e-02      -7.180880e-02 
       1.600000e+00       7.180787e-02       7.180526e-02 
       1.600000e+00      -7.180620e-02       7.180526e-02 
       1.800000e+00      -7.180598e-02      -7.180926e-02 
       1.800000e+00       7.180808e-02      -7.180926e-02 
       1.800000e+00       7.180808e-02       7.180481e-02 
       1.800000e+00      -7.180598e-02       7.180481e-02 
       1.800000e+00      -7.180598e-02      -7.180926e-02 
       1.800000e+00       7.180808e-02      -7.180926e-02 
       1.800000e+00       7.180808e-02       7.180481e-02 
       1.800000e+00      -7.180598e-02       7.180481e-02 
       2.000000e+00      -7.180575e-02      -7.180977e-02 
       2.000000e+00       7.180832e-02      -7.180977e-02 
       2.000000e+00       7.180832e-02       7.180430e-02 
       2.000000e+00      -7.180575e-02       7.180430e-02 
       2.000000e+00      -7.180575e-02      -7.180977e-02 
       2.000000e+00       7.180832e-02      -7.180977e-02 
       2.000000e+00       7.180832e-02       7.180430e-02 
       2.000000e+00      -7.180575e-02       7.180430e-02 
       2.200000e+00      -7.180549e-02      -7.181032e-02 
       2.200000e+00       7.180858e-02      -7.181032e-02 
       2.200000e+00       7.180858e-02       7.180375e-02 
       2.200000e+00      -7.180549e-02       7.180375e-02 
       2.200000e+00      -7.180549e-02      -7.181032e-02 
       2.200000e+00       7.180858e-02      -7.181032e-02 
       2.200000e+00       7.180858e-02       7.180375e-02 
       2.200000e+00      -7.180549e-02       7.180375e-02 
       2.400000e+00      -7.180521e-02      -7.181092e-02 
       2.400000e+00       7.180886e-02      -7.181092e-02 
       2.400000e+00       7.180886e-02       7.180315e-02 
       2.400000e+00      -7.180521e-02       7.180315e-02 
       2.400000e+00      -7.180521e-02      -7.181092e-02 
       2.400000e+00       7.180886e-02      -7.181092e-02 
       2.400000e+00       7.180886e-02       7.180315e-02 
       2.400000e+00      -7.180521e-02       7.180315e-02 
       2.600000e+00      -7.180490e-02      -7.181156e-02 
       2.600000e+00       7.180916e-02      -7.181156e-02 
       2.600000e+00       7.180916e-02       7.180251e-02 
       2.600000e+00      -7.180490e-02       7.180251e-02 
       2.600000e+00      -7.180490e-02      -7.181156e-02 
       2.600000e+00       7.180916e-02      -7.181156e-02 
       2.600000e+00       7.180916e-02       7.180251e-02 
       2.600000e+00      -7.180490e-02       7.180251e-02 
       2.800000e+00      -7.180458e-02      -7.181225e-02 
       2.800000e+00       7.180949e-02      -7.181225e-02 
       2.800000e+00       7.180949e-02       7.180182e-02 
       2.800000e+00      -7.180458e-02       7.180182e-02 
       2.800000e+00      -7.180458e-02      -7.181225e-02 
       2.800000e+00       7.180949e-02      -7.181225e-02 
       2.800000e+00       7.180949e-02       7.180182e-02 
       2.800000e+00      -7.180458e-02       7.180182e-02 
       3.000000e+00      -7.180424e-02      -7.181298e-02 
       3.000000e+00       7.180983e-02      -7.181298e-02 
       3.000000e+00       7.180983e-02       7.180108e-02 
       3.000000e+00      -7.180424e-02       7.180108e-02 
       3.000000e+00      -7.180424e-02      -7.181298e-02 
       3.000000e+00       7.180983e-02      -7.181298e-02 
       3.000000e+00       7.180983e-02       7.180108e-02 
       3.000000e+00      -7.180424e-02       7.180108e-02 
       3.200000e+00      -7.180387e-02      -7.181376e-02 
       3.200000e+00       7.181019e-02      -7.181376e-02 
       3.200000e+00       7.181019e-02       7.180031e-02 
       3.200000e+00      -7.180387e-02       7.180031e-02 
       3.200000e+00      -7.180387e-02      -7.181376e-02 
       3.200000e+00       7.181019e-02      -7.181376e-02 
       3.200000e+00       7.181019e-02       7.180031e-02 
       3.200000e+00      -7.180387e-02       7.180031e-02 
       3.400000e+00      -7.180349e-02      -7.181458e-02 
       3.400000e+00       7.181057e-02      -7.181458e-02 
       3.400000e+00       7.181057e-02       7.179949e-02 
       3.400000e+00      -7.180349e-02       7.179949e-02 
       3.400000e+00      -7.180349e-02      -7.181458e-02 
       3.400000e+00       7.181057e-02      -7.181458e-02 
       3.400000e+00       7.181057e-02       7.179949e-02 
       3.400000e+00      -7.180349e-02       7.179949e-02 
       3.600000e+00      -7.180309e-02      -7.181543e-02 
       3.600000e+00       7.181098e-02      -7.181543e-02 
       3.600000e+00       7.181098e-02       7.179863e-02 
       3.600000e+00      -7.180309e-02       7.179863e-02 
       3.600000e+00      -7.180309e-02      -7.181543e-02 
       3.600000e+00       7.181098e-02      -7.181543e-02 
       3.600000e+00       7.181098e-02       7.179863e-02 
       3.600000e+00      -7.180309e-02       7.179863e-02 
       3.800000e+00      -7.180267e-02      -7.181633e-02 
       3.800000e+00       7.181140e-02      -7.181633e-02 
       3.800000e+00       7.181140e-02       7.179774e-02 
       3.800000e+00      -7.180267e-02       7.179774e-02 
       3.800000e+00      -7.180267e-02      -7.181633e-02 
       3.800000e+00       7.181140e-02      -7.181633e-02 
       3.800000e+00       7.181140e-02       7.179774e-02 
       3.800000e+00      -7.180267e-02       7.179774e-02 
       4.000000e+00      -7.180223e-02      -7.181727e-02 
       3.999999e+00       7.181183e-02      -7.181727e-02 
       4.000000e+00       7.181183e-02       7.179680e-02 
       4.000001e+00      -7.180223e-02       7.179680e-02 
       4.000000e+00      -7.180223e-02      -7.181727e-02 
       3.999999e+00       7.181183e-02      -7.181727e-02 
       4.000000e+00       7.181183e-02       7.179680e-02 
       4.000001e+00      -7.180223e-02       7.179680e-02 
       4.200000e+00      -7.180178e-02      -7.181824e-02 
[...]
POINT_DATA       800 
VECTORS Displacements float
       9.39942691e-26       0.00000000e+00       0.00000000e+00 
       2.49748142e-23       1.38777878e-17       0.00000000e+00 
      -9.39942691e-26       0.00000000e+00       0.00000000e+00 
      -2.49748142e-23      -1.38777878e-17       0.00000000e+00 
      -1.09816069e-08       1.36509197e-08      -2.89284617e-08 
      -3.05230959e-08       1.36509184e-08      -2.89284239e-08 
       1.08942916e-08       1.36508863e-08      -2.89284299e-08 
       3.04357806e-08       1.36508876e-08      -2.89284676e-08 
      -1.09816069e-08       1.36509197e-08      -2.89284617e-08 
      -3.05230959e-08       1.36509184e-08      -2.89284239e-08 
       1.08942916e-08       1.36508863e-08      -2.89284299e-08 
       3.04357806e-08       1.36508876e-08      -2.89284676e-08 
      -2.17689036e-08       5.42519908e-08      -1.15001181e-07 
      -6.04731137e-08       5.42519856e-08      -1.15001100e-07 
       2.15940822e-08       5.42519268e-08      -1.15001123e-07 
       6.02982924e-08       5.42519320e-08      -1.15001204e-07 
      -2.17689036e-08       5.42519908e-08      -1.15001181e-07 
      -6.04731137e-08       5.42519856e-08      -1.15001100e-07 
       2.15940822e-08       5.42519268e-08      -1.15001123e-07 
       6.02982924e-08       5.42519320e-08      -1.15001204e-07 
      -3.23618883e-08       1.21275733e-07      -2.57149210e-07 
      -8.98500518e-08       1.21275722e-07      -2.57149081e-07 
       3.20993735e-08       1.21275641e-07      -2.57149133e-07 
       8.95875371e-08       1.21275653e-07      -2.57149262e-07 
      -3.23618883e-08       1.21275733e-07      -2.57149210e-07 
      -8.98500518e-08       1.21275722e-07      -2.57149081e-07 
       3.20993735e-08       1.21275641e-07      -2.57149133e-07 
       8.95875371e-08       1.21275653e-07      -2.57149262e-07 
      -4.27605589e-08       2.14194667e-07      -4.54303604e-07 
      -1.18653908e-07       2.14194647e-07      -4.54303422e-07 
       4.24101674e-08       2.14194550e-07      -4.54303512e-07 
       1.18303517e-07       2.14194570e-07      -4.54303694e-07 
      -4.27605589e-08       2.14194667e-07      -4.54303604e-07 
      -1.18653908e-07       2.14194647e-07      -4.54303422e-07 
       4.24101674e-08       2.14194550e-07      -4.54303512e-07 
       1.18303517e-07       2.14194570e-07      -4.54303694e-07 
      -5.29649141e-08       3.32481312e-07      -7.05395415e-07 
      -1.46884681e-07       3.32481281e-07      -7.05395175e-07 
       5.25264656e-08       3.32481172e-07      -7.05395313e-07 
       1.46446233e-07       3.32481203e-07      -7.05395553e-07 
      -5.29649141e-08       3.32481312e-07      -7.05395415e-07 
      -1.46884681e-07       3.32481281e-07      -7.05395175e-07 
       5.25264656e-08       3.32481172e-07      -7.05395313e-07 
       1.46446233e-07       3.32481203e-07      -7.05395553e-07 
      -6.29749519e-08       4.75608189e-07      -1.00935570e-06 
      -1.74542369e-07       4.75608145e-07      -1.00935539e-06 
       6.24482699e-08       4.75608028e-07      -1.00935559e-06 
       1.74015687e-07       4.75608071e-07      -1.00935589e-06 
      -6.29749519e-08       4.75608189e-07      -1.00935570e-06 
      -1.74542369e-07       4.75608145e-07      -1.00935539e-06 
       6.24482699e-08       4.75608028e-07      -1.00935559e-06 
       1.74015687e-07       4.75608071e-07      -1.00935589e-06 
      -7.27906704e-08       6.43047817e-07      -1.36511550e-06 
      -2.01626970e-07       6.43047759e-07      -1.36511513e-06 
       7.21755822e-08       6.43047638e-07      -1.36511539e-06 
       2.01011882e-07       6.43047695e-07      -1.36511576e-06 
      -7.27906704e-08       6.43047817e-07      -1.36511550e-06 
      -2.01626970e-07       6.43047759e-07      -1.36511513e-06 
       7.21755822e-08       6.43047638e-07      -1.36511539e-06 
       2.01011882e-07       6.43047695e-07      -1.36511576e-06 
      -8.24120678e-08       8.34272716e-07      -1.77160588e-06 
      -2.28138482e-07       8.34272643e-07      -1.77160545e-06 
       8.17084043e-08       8.34272521e-07      -1.77160578e-06 
       2.27434819e-07       8.34272595e-07      -1.77160622e-06 
      -8.24120678e-08       8.34272716e-07      -1.77160588e-06 
      -2.28138482e-07       8.34272643e-07      -1.77160545e-06 
       8.17084043e-08       8.34272521e-07      -1.77160578e-06 
       2.27434819e-07       8.34272595e-07      -1.77160622e-06 
      -9.18391423e-08       1.04875541e-06      -2.22775789e-06 
      -2.54076903e-07       1.04875532e-06      -2.22775739e-06 
       9.10467381e-08       1.04875520e-06      -2.22775780e-06 
       2.53284499e-07       1.04875529e-06      -2.22775831e-06 
      -9.18391423e-08       1.04875541e-06      -2.22775789e-06 
      -2.54076903e-07       1.04875532e-06      -2.22775739e-06 
       9.10467381e-08       1.04875520e-06      -2.22775780e-06 
       2.53284499e-07       1.04875529e-06      -2.22775831e-06 
      -1.01071892e-07       1.28596841e-06      -2.73250259e-06 
      -2.79442233e-07       1.28596830e-06      -2.73250200e-06 
       1.00190585e-07       1.28596819e-06      -2.73250251e-06 
       2.78560925e-07       1.28596830e-06      -2.73250309e-06 
      -1.01071892e-07       1.28596841e-06      -2.73250259e-06 
      -2.79442233e-07       1.28596830e-06      -2.73250200e-06 
       1.00190585e-07       1.28596819e-06      -2.73250251e-06 
       2.78560925e-07       1.28596830e-06      -2.73250309e-06 
      -1.10102680e-07       1.54539328e-06      -3.28478632e-06 
      -3.04246449e-07       1.54539315e-06      -3.28478567e-06 
       1.09161987e-07       1.54539306e-06      -3.28478627e-06 
       3.03305757e-07       1.54539319e-06      -3.28478692e-06 
      -1.10102680e-07       1.54539328e-06      -3.28478632e-06 
      -3.04246449e-07       1.54539315e-06      -3.28478567e-06 
       1.09161987e-07       1.54539306e-06      -3.28478627e-06 
       3.03305757e-07       1.54539319e-06      -3.28478692e-06 
      -1.18955483e-07       1.82654854e-06      -3.88362252e-06 
      -3.28533734e-07       1.82654839e-06      -3.88362180e-06 
       1.17954980e-07       1.82654832e-06      -3.88362250e-06 
       3.27533230e-07       1.82654848e-06      -3.88362322e-06 
      -1.18955483e-07       1.82654854e-06      -3.88362252e-06 
      -3.28533734e-07       1.82654839e-06      -3.88362180e-06 
       1.17954980e-07       1.82654832e-06      -3.88362250e-06 
       3.27533230e-07       1.82654848e-06      -3.88362322e-06 
      -1.27630299e-07       2.12896218e-06      -4.52804284e-06 
      -3.52304081e-07       2.12896200e-06      -4.52804206e-06 
       1.26569568e-07       2.12896197e-06      -4.52804286e-06 
       3.51243350e-07       2.12896214e-06      -4.52804364e-06 
      -1.27630299e-07       2.12896218e-06      -4.52804284e-06 
      -3.52304081e-07       2.12896200e-06      -4.52804206e-06 
       1.26569568e-07       2.12896197e-06      -4.52804286e-06 
       3.51243350e-07       2.12896214e-06      -4.52804364e-06 
      -1.36127123e-07       2.45216216e-06      -5.21707894e-06 
      -3.75557488e-07       2.45216196e-06      -5.21707808e-06 
       1.35005757e-07       2.45216195e-06      -5.21707899e-06 
       3.74436122e-07       2.45216215e-06      -5.21707985e-06 
      -1.36127123e-07       2.45216216e-06      -5.21707894e-06 
      -3.75557488e-07       2.45216196e-06      -5.21707808e-06 
       1.35005757e-07       2.45216195e-06      -5.21707899e-06 
       3.74436122e-07       2.45216215e-06      -5.21707985e-06 
      -1.44445950e-07       2.79567646e-06      -5.94976247e-06 
      -3.98293949e-07       2.79567623e-06      -5.94976153e-06 
       1.43263549e-07       2.79567626e-06      -5.94976256e-06 
       3.97111548e-07       2.79567648e-06      -5.94976349e-06 
      -1.44445950e-07       2.79567646e-06      -5.94976247e-06 
      -3.98293949e-07       2.79567623e-06      -5.94976153e-06 
       1.43263549e-07       2.79567626e-06      -5.94976256e-06 
       3.97111548e-07       2.79567648e-06      -5.94976349e-06 
      -1.52586776e-07       3.15903304e-06      -6.72512507e-06 
      -4.20513460e-07       3.15903279e-06      -6.72512407e-06 
       1.51342951e-07       3.15903285e-06      -6.72512521e-06 
       4.19269634e-07       3.15903310e-06      -6.72512621e-06 
      -1.52586776e-07       3.15903304e-06      -6.72512507e-06 
      -4.20513460e-07       3.15903279e-06      -6.72512407e-06 
       1.51342951e-07       3.15903285e-06      -6.72512521e-06 
       4.19269634e-07       3.15903310e-06      -6.72512621e-06 
      -1.60549595e-07       3.54175989e-06      -7.54219842e-06 
      -4.42216015e-07       3.54175962e-06      -7.54219733e-06 
       1.59243966e-07       3.54175971e-06      -7.54219859e-06 
       4.40910386e-07       3.54175999e-06      -7.54219968e-06 
      -1.60549595e-07       3.54175989e-06      -7.54219842e-06 
      -4.42216015e-07       3.54175962e-06      -7.54219733e-06 
       1.59243966e-07       3.54175971e-06      -7.54219859e-06 
       4.40910386e-07       3.54175999e-06      -7.54219968e-06 
      -1.68334406e-07       3.94338497e-06      -8.40001415e-06 
      -4.63401613e-07       3.94338467e-06      -8.40001298e-06 
       1.66966598e-07       3.94338480e-06      -8.40001437e-06 
       4.62033805e-07       3.94338510e-06      -8.40001553e-06 
      -1.68334406e-07       3.94338497e-06      -8.40001415e-06 
      -4.63401613e-07       3.94338467e-06      -8.40001298e-06 
       1.66966598e-07       3.94338480e-06      -8.40001437e-06 
       4.62033805e-07       3.94338510e-06      -8.40001553e-06 
      -1.75941201e-07       4.36343626e-06      -9.29760392e-06 
      -4.84070246e-07       4.36343593e-06      -9.29760267e-06 
       1.74510854e-07       4.36343610e-06      -9.29760418e-06 
       4.82639899e-07       4.36343643e-06      -9.29760543e-06 
      -1.75941201e-07       4.36343626e-06      -9.29760392e-06 
      -4.84070246e-07       4.36343593e-06      -9.29760267e-06 
       1.74510854e-07       4.36343610e-06      -9.29760418e-06 
       4.82639899e-07       4.36343643e-06      -9.29760543e-06 
      -1.83369977e-07       4.80144173e-06      -1.02339994e-05 
      -5.04221911e-07       4.80144137e-06      -1.02339981e-05 
       1.81876735e-07       4.80144158e-06      -1.02339997e-05 
       5.02728669e-07       4.80144194e-06      -1.02340010e-05 
      -1.83369977e-07       4.80144173e-06      -1.02339994e-05 
      -5.04221911e-07       4.80144137e-06      -1.02339981e-05 
       1.81876735e-07       4.80144158e-06      -1.02339997e-05 
       5.02728669e-07       4.80144194e-06      -1.02340010e-05 
      -1.90618159e-07       5.25693854e-06      -1.12082485e-05 
      -5.23873936e-07       5.25693816e-06      -1.12082471e-05 
       1.89082788e-07       5.25693841e-06      -1.12082488e-05 
       5.22338564e-07       5.25693880e-06      -1.12082502e-05 
      -1.90618159e-07       5.25693854e-06      -1.12082485e-05 
      -5.23873936e-07       5.25693816e-06      -1.12082471e-05 
       1.89082788e-07       5.25693841e-06      -1.12082488e-05 
       5.22338564e-07       5.25693880e-06      -1.12082502e-05 
      -1.97705828e-07       5.72950117e-06      -1.22194687e-05 
      -5.43066670e-07       5.72950075e-06      -1.22194673e-05 
       1.96127818e-07       5.72950106e-06      -1.22194692e-05 
       5.41488659e-07       5.72950147e-06      -1.22194706e-05 
      -1.97705828e-07       5.72950117e-06      -1.22194687e-05 
      -5.43066670e-07       5.72950075e-06      -1.22194673e-05 
       1.96127818e-07       5.72950106e-06      -1.22194692e-05 
       5.41488659e-07       5.72950147e-06      -1.22194706e-05 
      -2.04632975e-07       6.21871352e-06      -1.32667963e-05 
      -5.61800105e-07       6.21871307e-06      -1.32667948e-05 
       2.03011832e-07       6.21871343e-06      -1.32667968e-05 
       5.60178963e-07       6.21871388e-06      -1.32667984e-05 
      -2.04632975e-07       6.21871352e-06      -1.32667963e-05 
      -5.61800105e-07       6.21871307e-06      -1.32667948e-05 
       2.03011832e-07       6.21871343e-06      -1.32667968e-05 
       5.60178963e-07       6.21871388e-06      -1.32667984e-05 
      -2.11399596e-07       6.72415952e-06      -1.43493674e-05 
      -5.80074238e-07       6.72415905e-06      -1.43493658e-05 
       2.09734836e-07       6.72415945e-06      -1.43493680e-05 
       5.78409478e-07       6.72415993e-06      -1.43493696e-05 
      -2.11399596e-07       6.72415952e-06      -1.43493674e-05 
      -5.80074238e-07       6.72415905e-06      -1.43493658e-05 
       2.09734836e-07       6.72415945e-06      -1.43493680e-05 
       5.78409478e-07       6.72415993e-06      -1.43493696e-05 
      -2.18005685e-07       7.24542308e-06      -1.54663181e-05 
      -5.97889061e-07       7.24542258e-06      -1.54663164e-05 
       2.16296835e-07       7.24542304e-06      -1.54663187e-05 
       5.96180211e-07       7.24542354e-06      -1.54663204e-05 
      -2.18005685e-07       7.24542308e-06      -1.54663181e-05 
      -5.97889061e-07       7.24542258e-06      -1.54663164e-05 
       2.16296835e-07       7.24542304e-06      -1.54663187e-05 
       5.96180211e-07       7.24542354e-06      -1.54663204e-05 
      -2.24451235e-07       7.78208812e-06      -1.66167846e-05 
      -6.15244569e-07       7.78208759e-06      -1.66167828e-05 
       2.22697835e-07       7.78208810e-06      -1.66167852e-05 
       6.13491169e-07       7.78208863e-06      -1.66167870e-05 
      -2.24451235e-07       7.78208812e-06      -1.66167846e-05 
      -6.15244569e-07       7.78208759e-06      -1.66167828e-05 
       2.22697835e-07       7.78208810e-06      -1.66167852e-05 
       6.13491169e-07       7.78208863e-06      -1.66167870e-05 
      -2.30736241e-07       8.33373857e-06      -1.77999029e-05 
      -6.32140756e-07       8.33373800e-06      -1.77999011e-05 
       2.28937844e-07       8.33373856e-06      -1.77999036e-05 
       6.30342358e-07       8.33373913e-06      -1.77999055e-05 
      -2.30736241e-07       8.33373857e-06      -1.77999029e-05 
      -6.32140756e-07       8.33373800e-06      -1.77999011e-05 
       2.28937844e-07       8.33373856e-06      -1.77999036e-05 
       6.30342358e-07       8.33373913e-06      -1.77999055e-05 
      -2.36860696e-07       8.89995832e-06      -1.90148093e-05 
      -6.48577615e-07       8.89995773e-06      -1.90148073e-05 
       2.35016866e-07       8.89995834e-06      -1.90148101e-05 
       6.46733785e-07       8.89995893e-06      -1.90148120e-05 
      -2.36860696e-07       8.89995832e-06      -1.90148093e-05 
      -6.48577615e-07       8.89995773e-06      -1.90148073e-05 
       2.35016866e-07       8.89995834e-06      -1.90148101e-05 
       6.46733785e-07       8.89995893e-06      -1.90148120e-05 
      -2.42824595e-07       9.48033131e-06      -2.02606398e-05 
      -6.64555141e-07       9.48033069e-06      -2.02606378e-05 
       2.40934908e-07       9.48033135e-06      -2.02606406e-05 
       6.62665453e-07       9.48033197e-06      -2.02606426e-05 
      -2.42824595e-07       9.48033131e-06      -2.02606398e-05 
      -6.64555141e-07       9.48033069e-06      -2.02606378e-05 
       2.40934908e-07       9.48033135e-06      -2.02606406e-05 
       6.62665453e-07       9.48033197e-06      -2.02606426e-05 
      -2.48627932e-07       1.00744414e-05      -2.15365306e-05 
      -6.80073327e-07       1.00744408e-05      -2.15365285e-05 
       2.46691974e-07       1.00744415e-05      -2.15365315e-05 
       6.78137370e-07       1.00744422e-05      -2.15365336e-05 
      -2.48627932e-07       1.00744414e-05      -2.15365306e-05 
      -6.80073328e-07       1.00744408e-05      -2.15365285e-05 
       2.46691974e-07       1.00744415e-05      -2.15365315e-05 
       6.78137369e-07       1.00744422e-05      -2.15365336e-05 
      -2.54272090e-07       1.06818819e-05      -2.28416349e-05 
      -6.95153649e-07       1.06818813e-05      -2.28416328e-05 
       2.52303913e-07       1.06818820e-05      -2.28416359e-05 
       6.93185473e-07       1.06818827e-05      -2.28416380e-05 
      -2.54272090e-07       1.06818819e-05      -2.28416349e-05 
      -6.95153649e-07       1.06818813e-05      -2.28416328e-05 
       2.52303913e-07       1.06818820e-05      -2.28416359e-05 
       6.93185473e-07       1.06818827e-05      -2.28416380e-05 
      -2.59774136e-07       1.13022835e-05      -2.41751775e-05 
      -7.09833466e-07       1.13022828e-05      -2.41751753e-05 
       2.57773251e-07       1.13022836e-05      -2.41751785e-05 
       7.07832580e-07       1.13022843e-05      -2.41751808e-05 
      -2.59774136e-07       1.13022835e-05      -2.41751775e-05 
      -7.09833466e-07       1.13022828e-05      -2.41751753e-05 
       2.57773251e-07       1.13022836e-05      -2.41751785e-05 
       7.07832580e-07       1.13022843e-05      -2.41751808e-05 
      -2.65134063e-07       1.19352863e-05      -2.55364021e-05 
      -7.24112771e-07       1.19352856e-05      -2.55363998e-05 
       2.63099993e-07       1.19352865e-05      -2.55364032e-05 
       7.22078700e-07       1.19352872e-05      -2.55364055e-05 
      -2.65134063e-07       1.19352863e-05      -2.55364021e-05 
      -7.24112771e-07       1.19352856e-05      -2.55363998e-05 
       2.63099993e-07       1.19352865e-05      -2.55364032e-05 
       7.22078700e-07       1.19352872e-05      -2.55364055e-05 
      -2.70351866e-07       1.25805305e-05      -2.69245523e-05 
      -7.37991558e-07       1.25805298e-05      -2.69245499e-05 
       2.68284146e-07       1.25805307e-05      -2.69245534e-05 
       7.35923837e-07       1.25805315e-05      -2.69245558e-05 
      -2.70351866e-07       1.25805305e-05      -2.69245523e-05 
      -7.37991558e-07       1.25805298e-05      -2.69245499e-05 
       2.68284146e-07       1.25805307e-05      -2.69245534e-05 
       7.35923837e-07       1.25805315e-05      -2.69245558e-05 
      -2.75427539e-07       1.32376563e-05      -2.83388717e-05 
      -7.51469821e-07       1.32376555e-05      -2.83388693e-05 
       2.73325716e-07       1.32376565e-05      -2.83388730e-05 
       7.49367998e-07       1.32376573e-05      -2.83388754e-05 
      -2.75427539e-07       1.32376563e-05      -2.83388717e-05 
      -7.51469821e-07       1.32376555e-05      -2.83388693e-05 
       2.73325716e-07       1.32376565e-05      -2.83388730e-05 
       7.49367998e-07       1.32376573e-05      -2.83388754e-05 
      -2.80361072e-07       1.39063038e-05      -2.97786042e-05 
      -7.64547553e-07       1.39063030e-05      -2.97786017e-05 
       2.78224709e-07       1.39063040e-05      -2.97786055e-05 
       7.62411190e-07       1.39063048e-05      -2.97786079e-05 
      -2.80361072e-07       1.39063038e-05      -2.97786042e-05 
      -7.64547553e-07       1.39063030e-05      -2.97786017e-05 
       2.78224709e-07       1.39063040e-05      -2.97786055e-05 
       7.62411190e-07       1.39063048e-05      -2.97786079e-05 
      -2.85152462e-07       1.45861131e-05      -3.12429932e-05 
      -7.77224748e-07       1.45861122e-05      -3.12429906e-05 
       2.82981134e-07       1.45861133e-05      -3.12429945e-05 
       7.75053420e-07       1.45861142e-05      -3.12429971e-05 
      -2.85152462e-07       1.45861131e-05      -3.12429932e-05 
      -7.77224748e-07       1.45861122e-05      -3.12429906e-05 
       2.82981134e-07       1.45861133e-05      -3.12429945e-05 
       7.75053420e-07       1.45861142e-05      -3.12429971e-05 
      -2.89801699e-07       1.52767244e-05      -3.27312824e-05 
      -7.89501397e-07       1.52767236e-05      -3.27312798e-05 
       2.87594997e-07       1.52767247e-05      -3.27312839e-05 
       7.87294693e-07       1.52767256e-05      -3.27312865e-05 
      -2.89801699e-07       1.52767244e-05      -3.27312824e-05 
      -7.89501397e-07       1.52767236e-05      -3.27312798e-05 