# vtk DataFile Version 2.0
./output/onsasExample_BladeCantileverBeamNoPitch_windVel3DDynamic 3D/onsasExample_BladeCantileverBeamNoPitch_windVel3DDynamic 3D_0157.vtk
ASCII
DATASET UNSTRUCTURED_GRID

POINTS 800 float
       9.485572e-24      -7.180703e-02      -7.180703e-02 
       3.057375e-23       7.180703e-02      -7.180703e-02 
      -9.485572e-24       7.180703e-02       7.180703e-02 
      -3.057375e-23      -7.180703e-02       7.180703e-02 
       2.000000e-01      -7.180702e-02      -7.180706e-02 
       2.000000e-01       7.180705e-02      -7.180706e-02 
       2.000000e-01       7.180705e-02       7.180701e-02 
       2.000000e-01      -7.180702e-02       7.180701e-02 
       2.000000e-01      -7.180702e-02      -7.180706e-02 
       2.000000e-01       7.180705e-02      -7.180706e-02 
       2.000000e-01       7.180705e-02       7.180701e-02 
       2.000000e-01      -7.180702e-02       7.180701e-02 
       4.000000e-01      -7.180698e-02      -7.180714e-02 
       3.999999e-01       7.180709e-02      -7.180714e-02 
       4.000000e-01       7.180709e-02       7.180693e-02 
       4.000001e-01      -7.180698e-02       7.180693e-02 
       4.000000e-01      -7.180698e-02      -7.180714e-02 
       3.999999e-01       7.180709e-02      -7.180714e-02 
       4.000000e-01       7.180709e-02       7.180693e-02 
       4.000001e-01      -7.180698e-02       7.180693e-02 
       6.000000e-01      -7.180691e-02      -7.180727e-02 
       5.999999e-01       7.180716e-02      -7.180727e-02 
       6.000000e-01       7.180716e-02       7.180679e-02 
       6.000001e-01      -7.180691e-02       7.180679e-02 
       6.000000e-01      -7.180691e-02      -7.180727e-02 
       5.999999e-01       7.180716e-02      -7.180727e-02 
       6.000000e-01       7.180716e-02       7.180679e-02 
       6.000001e-01      -7.180691e-02       7.180679e-02 
       8.000000e-01      -7.180682e-02      -7.180746e-02 
       7.999999e-01       7.180725e-02      -7.180746e-02 
       8.000000e-01       7.180725e-02       7.180661e-02 
       8.000001e-01      -7.180682e-02       7.180661e-02 
       8.000000e-01      -7.180682e-02      -7.180746e-02 
       7.999999e-01       7.180725e-02      -7.180746e-02 
       8.000000e-01       7.180725e-02       7.180661e-02 
       8.000001e-01      -7.180682e-02       7.180661e-02 
       1.000000e+00      -7.180670e-02      -7.180769e-02 
       9.999999e-01       7.180737e-02      -7.180769e-02 
       1.000000e+00       7.180737e-02       7.180638e-02 
       1.000000e+00      -7.180670e-02       7.180638e-02 
       1.000000e+00      -7.180670e-02      -7.180769e-02 
       9.999999e-01       7.180737e-02      -7.180769e-02 
       1.000000e+00       7.180737e-02       7.180638e-02 
       1.000000e+00      -7.180670e-02       7.180638e-02 
       1.200000e+00      -7.180655e-02      -7.180797e-02 
       1.200000e+00       7.180751e-02      -7.180797e-02 
       1.200000e+00       7.180751e-02       7.180610e-02 
       1.200000e+00      -7.180655e-02       7.180610e-02 
       1.200000e+00      -7.180655e-02      -7.180797e-02 
       1.200000e+00       7.180751e-02      -7.180797e-02 
       1.200000e+00       7.180751e-02       7.180610e-02 
       1.200000e+00      -7.180655e-02       7.180610e-02 
       1.400000e+00      -7.180639e-02      -7.180830e-02 
       1.400000e+00       7.180768e-02      -7.180830e-02 
       1.400000e+00       7.180768e-02       7.180577e-02 
       1.400000e+00      -7.180639e-02       7.180577e-02 
       1.400000e+00      -7.180639e-02      -7.180830e-02 
       1.400000e+00       7.180768e-02      -7.180830e-02 
       1.400000e+00       7.180768e-02       7.180577e-02 
       1.400000e+00      -7.180639e-02       7.180577e-02 
       1.600000e+00      -7.180619e-02      -7.180868e-02 
       1.600000e+00       7.180787e-02      -7.180868e-02 
       1.600000e+00       7.180787e-02       7.180539e-02 
       1.600000e+00      -7.180619e-02       7.180539e-02 
       1.600000e+00      -7.180619e-02      -7.180868e-02 
       1.600000e+00       7.180787e-02      -7.180868e-02 
       1.600000e+00       7.180787e-02       7.180539e-02 
       1.600000e+00      -7.180619e-02       7.180539e-02 
       1.800000e+00      -7.180598e-02      -7.180910e-02 
       1.800000e+00       7.180809e-02      -7.180910e-02 
       1.800000e+00       7.180809e-02       7.180496e-02 
       1.800000e+00      -7.180598e-02       7.180496e-02 
       1.800000e+00      -7.180598e-02      -7.180910e-02 
       1.800000e+00       7.180809e-02      -7.180910e-02 
       1.800000e+00       7.180809e-02       7.180496e-02 
       1.800000e+00      -7.180598e-02       7.180496e-02 
       2.000000e+00      -7.180574e-02      -7.180957e-02 
       2.000000e+00       7.180833e-02      -7.180957e-02 
       2.000000e+00       7.180833e-02       7.180450e-02 
       2.000000e+00      -7.180574e-02       7.180450e-02 
       2.000000e+00      -7.180574e-02      -7.180957e-02 
       2.000000e+00       7.180833e-02      -7.180957e-02 
       2.000000e+00       7.180833e-02       7.180450e-02 
       2.000000e+00      -7.180574e-02       7.180450e-02 
       2.200000e+00      -7.180548e-02      -7.181008e-02 
       2.200000e+00       7.180859e-02      -7.181008e-02 
       2.200000e+00       7.180859e-02       7.180398e-02 
       2.200000e+00      -7.180548e-02       7.180398e-02 
       2.200000e+00      -7.180548e-02      -7.181008e-02 
       2.200000e+00       7.180859e-02      -7.181008e-02 
       2.200000e+00       7.180859e-02       7.180398e-02 
       2.200000e+00      -7.180548e-02       7.180398e-02 
       2.400000e+00      -7.180519e-02      -7.181064e-02 
       2.400000e+00       7.180887e-02      -7.181064e-02 
       2.400000e+00       7.180887e-02       7.180343e-02 
       2.400000e+00      -7.180519e-02       7.180343e-02 
       2.400000e+00      -7.180519e-02      -7.181064e-02 
       2.400000e+00       7.180887e-02      -7.181064e-02 
       2.400000e+00       7.180887e-02       7.180343e-02 
       2.400000e+00      -7.180519e-02       7.180343e-02 
       2.600000e+00      -7.180489e-02      -7.181123e-02 
       2.600000e+00       7.180918e-02      -7.181123e-02 
       2.600000e+00       7.180918e-02       7.180283e-02 
       2.600000e+00      -7.180489e-02       7.180283e-02 
       2.600000e+00      -7.180489e-02      -7.181123e-02 
       2.600000e+00       7.180918e-02      -7.181123e-02 
       2.600000e+00       7.180918e-02       7.180283e-02 
       2.600000e+00      -7.180489e-02       7.180283e-02 
       2.800000e+00      -7.180456e-02      -7.181187e-02 
       2.800000e+00       7.180950e-02      -7.181187e-02 
       2.800000e+00       7.180950e-02       7.180219e-02 
       2.800000e+00      -7.180456e-02       7.180219e-02 
       2.800000e+00      -7.180456e-02      -7.181187e-02 
       2.800000e+00       7.180950e-02      -7.181187e-02 
       2.800000e+00       7.180950e-02       7.180219e-02 
       2.800000e+00      -7.180456e-02       7.180219e-02 
       3.000000e+00      -7.180422e-02      -7.181255e-02 
       3.000000e+00       7.180985e-02      -7.181255e-02 
       3.000000e+00       7.180985e-02       7.180152e-02 
       3.000000e+00      -7.180422e-02       7.180152e-02 
       3.000000e+00      -7.180422e-02      -7.181255e-02 
       3.000000e+00       7.180985e-02      -7.181255e-02 
       3.000000e+00       7.180985e-02       7.180152e-02 
       3.000000e+00      -7.180422e-02       7.180152e-02 
       3.200000e+00      -7.180385e-02      -7.181327e-02 
       3.200000e+00       7.181022e-02      -7.181327e-02 
       3.200000e+00       7.181022e-02       7.180080e-02 
       3.200000e+00      -7.180385e-02       7.180080e-02 
       3.200000e+00      -7.180385e-02      -7.181327e-02 
       3.200000e+00       7.181022e-02      -7.181327e-02 
       3.200000e+00       7.181022e-02       7.180080e-02 
       3.200000e+00      -7.180385e-02       7.180080e-02 
       3.400000e+00      -7.180346e-02      -7.181402e-02 
       3.400000e+00       7.181060e-02      -7.181402e-02 
       3.400000e+00       7.181060e-02       7.180004e-02 
       3.400000e+00      -7.180346e-02       7.180004e-02 
       3.400000e+00      -7.180346e-02      -7.181402e-02 
       3.400000e+00       7.181060e-02      -7.181402e-02 
       3.400000e+00       7.181060e-02       7.180004e-02 
       3.400000e+00      -7.180346e-02       7.180004e-02 
       3.600000e+00      -7.180306e-02      -7.181482e-02 
       3.600000e+00       7.181101e-02      -7.181482e-02 
       3.600000e+00       7.181101e-02       7.179925e-02 
       3.600000e+00      -7.180306e-02       7.179925e-02 
       3.600000e+00      -7.180306e-02      -7.181482e-02 
       3.600000e+00       7.181101e-02      -7.181482e-02 
       3.600000e+00       7.181101e-02       7.179925e-02 
       3.600000e+00      -7.180306e-02       7.179925e-02 
       3.800000e+00      -7.180264e-02      -7.181565e-02 
       3.800000e+00       7.181143e-02      -7.181565e-02 
       3.800000e+00       7.181143e-02       7.179842e-02 
       3.800000e+00      -7.180264e-02       7.179842e-02 
       3.800000e+00      -7.180264e-02      -7.181565e-02 
       3.800000e+00       7.181143e-02      -7.181565e-02 
       3.800000e+00       7.181143e-02       7.179842e-02 
       3.800000e+00      -7.180264e-02       7.179842e-02 
       4.000000e+00      -7.180219e-02      -7.181651e-02 
       4.000000e+00       7.181187e-02      -7.181651e-02 
       4.000000e+00       7.181187e-02       7.179756e-02 
       4.000000e+00      -7.180219e-02       7.179756e-02 
       4.000000e+00      -7.180219e-02      -7.181651e-02 
       4.000000e+00       7.181187e-02      -7.181651e-02 
       4.000000e+00       7.181187e-02       7.179756e-02 
       4.000000e+00      -7.180219e-02       7.179756e-02 
       4.200000e+00      -7.180174e-02      -7.181741e-02 
[...]
POINT_DATA       800 
VECTORS Displacements float
       9.48557204e-24      -1.38777878e-17       0.00000000e+00 
       3.05737538e-23       0.00000000e+00       0.00000000e+00 
      -9.48557204e-24       1.38777878e-17       0.00000000e+00 
      -3.05737538e-23       0.00000000e+00       0.00000000e+00 
      -9.46165069e-09       1.37446916e-08      -2.69033907e-08 
      -2.91377562e-08       1.37446903e-08      -2.69033570e-08 
       9.37639272e-09       1.37446619e-08      -2.69033621e-08 
       2.90524982e-08       1.37446632e-08      -2.69033958e-08 
      -9.46165069e-09       1.37446916e-08      -2.69033907e-08 
      -2.91377562e-08       1.37446903e-08      -2.69033570e-08 
       9.37639272e-09       1.37446619e-08      -2.69033621e-08 
       2.90524982e-08       1.37446632e-08      -2.69033958e-08 
      -1.87442855e-08       5.46267715e-08      -1.06929008e-07 
      -5.77173941e-08       5.46267662e-08      -1.06928936e-07 
       1.85735997e-08       5.46267146e-08      -1.06928956e-07 
       5.75467083e-08       5.46267198e-08      -1.06929029e-07 
      -1.87442855e-08       5.46267715e-08      -1.06929008e-07 
      -5.77173941e-08       5.46267662e-08      -1.06928936e-07 
       1.85735997e-08       5.46267146e-08      -1.06928956e-07 
       5.75467083e-08       5.46267198e-08      -1.06929029e-07 
      -2.78479028e-08       1.22118294e-07      -2.39050068e-07 
      -8.57389123e-08       1.22118282e-07      -2.39049952e-07 
       2.75916224e-08       1.22118212e-07      -2.39049997e-07 
       8.54826320e-08       1.22118224e-07      -2.39050113e-07 
      -2.78479028e-08       1.22118294e-07      -2.39050068e-07 
      -8.57389123e-08       1.22118282e-07      -2.39049952e-07 
       2.75916224e-08       1.22118212e-07      -2.39049997e-07 
       8.54826320e-08       1.22118224e-07      -2.39050113e-07 
      -3.67725008e-08       2.15691313e-07      -4.22239785e-07 
      -1.13202309e-07       2.15691293e-07      -4.22239621e-07 
       3.64304628e-08       2.15691209e-07      -4.22239699e-07 
       1.12860271e-07       2.15691229e-07      -4.22239863e-07 
      -3.67725008e-08       2.15691313e-07      -4.22239785e-07 
      -1.13202309e-07       2.15691293e-07      -4.22239621e-07 
       3.64304628e-08       2.15691209e-07      -4.22239699e-07 
       1.12860271e-07       2.15691229e-07      -4.22239863e-07 
      -4.55180782e-08       3.34817884e-07      -6.55471374e-07 
      -1.40107583e-07       3.34817853e-07      -6.55471158e-07 
       4.50901221e-08       3.34817758e-07      -6.55471277e-07 
       1.39679627e-07       3.34817790e-07      -6.55471493e-07 
      -4.55180782e-08       3.34817884e-07      -6.55471374e-07 
      -1.40107583e-07       3.34817853e-07      -6.55471158e-07 
       4.50901221e-08       3.34817758e-07      -6.55471277e-07 
       1.39679627e-07       3.34817790e-07      -6.55471493e-07 
      -5.40846328e-08       4.78970059e-07      -9.37718050e-07 
      -1.66454732e-07       4.78970015e-07      -9.37717778e-07 
       5.35706024e-08       4.78969915e-07      -9.37717946e-07 
       1.65940701e-07       4.78969959e-07      -9.37718218e-07 
      -5.40846328e-08       4.78970059e-07      -9.37718050e-07 
      -1.66454732e-07       4.78970015e-07      -9.37717778e-07 
       5.35706024e-08       4.78969915e-07      -9.37717946e-07 
       1.65940701e-07       4.78969959e-07      -9.37718218e-07 
      -6.24721634e-08       6.47619894e-07      -1.26795303e-06 
      -1.92243754e-07       6.47619836e-07      -1.26795270e-06 
       6.18719052e-08       6.47619733e-07      -1.26795292e-06 
       1.91643496e-07       6.47619792e-07      -1.26795325e-06 
      -6.24721634e-08       6.47619894e-07      -1.26795303e-06 
      -1.92243754e-07       6.47619836e-07      -1.26795270e-06 
       6.18719052e-08       6.47619733e-07      -1.26795292e-06 
       1.91643496e-07       6.47619792e-07      -1.26795325e-06 
      -7.06806682e-08       8.40239443e-07      -1.64514952e-06 
      -2.17474649e-07       8.40239368e-07      -1.64514913e-06 
       6.99940319e-08       8.40239267e-07      -1.64514942e-06 
       2.16788012e-07       8.40239342e-07      -1.64514981e-06 
      -7.06806682e-08       8.40239443e-07      -1.64514952e-06 
      -2.17474649e-07       8.40239368e-07      -1.64514913e-06 
       6.99940319e-08       8.40239267e-07      -1.64514942e-06 
       2.16788012e-07       8.40239342e-07      -1.64514981e-06 
      -7.87101457e-08       1.05630076e-06      -2.06828075e-06 
      -2.42147414e-07       1.05630067e-06      -2.06828029e-06 
       7.79369844e-08       1.05630057e-06      -2.06828065e-06 
       2.41374252e-07       1.05630066e-06      -2.06828111e-06 
      -7.87101457e-08       1.05630076e-06      -2.06828075e-06 
      -2.42147414e-07       1.05630067e-06      -2.06828029e-06 
       7.79369844e-08       1.05630057e-06      -2.06828065e-06 
       2.41374252e-07       1.05630066e-06      -2.06828111e-06 
      -8.65605942e-08       1.29527590e-06      -2.53631993e-06 
      -2.66262048e-07       1.29527579e-06      -2.53631940e-06 
       8.57007643e-08       1.29527570e-06      -2.53631983e-06 
       2.65402217e-07       1.29527581e-06      -2.53632036e-06 
      -8.65605942e-08       1.29527590e-06      -2.53631993e-06 
      -2.66262048e-07       1.29527579e-06      -2.53631940e-06 
       8.57007643e-08       1.29527570e-06      -2.53631983e-06 
       2.65402218e-07       1.29527581e-06      -2.53632036e-06 
      -9.42255785e-08       1.55664585e-06      -3.04825644e-06 
      -2.89831542e-07       1.55664571e-06      -3.04825585e-06 
       9.33081297e-08       1.55664565e-06      -3.04825636e-06 
       2.88914093e-07       1.55664578e-06      -3.04825695e-06 
      -9.42255785e-08       1.55664585e-06      -3.04825644e-06 
      -2.89831542e-07       1.55664571e-06      -3.04825585e-06 
       9.33081297e-08       1.55664565e-06      -3.04825636e-06 
       2.88914093e-07       1.55664578e-06      -3.04825695e-06 
      -1.01729393e-07       1.83992831e-06      -3.60314936e-06 
      -3.12900299e-07       1.83992815e-06      -3.60314871e-06 
       1.00753951e-07       1.83992811e-06      -3.60314931e-06 
       3.11924857e-07       1.83992827e-06      -3.60314996e-06 
      -1.01729393e-07       1.83992831e-06      -3.60314936e-06 
      -3.12900299e-07       1.83992815e-06      -3.60314871e-06 
       1.00753951e-07       1.83992811e-06      -3.60314931e-06 
       3.11924857e-07       1.83992827e-06      -3.60314996e-06 
      -1.09072035e-07       2.14465040e-06      -4.20007638e-06 
      -3.35468317e-07       2.14465022e-06      -4.20007566e-06 
       1.08038229e-07       2.14465020e-06      -4.20007635e-06 
       3.34434512e-07       2.14465038e-06      -4.20007706e-06 
      -1.09072035e-07       2.14465040e-06      -4.20007638e-06 
      -3.35468317e-07       2.14465022e-06      -4.20007566e-06 
       1.08038229e-07       2.14465020e-06      -4.20007635e-06 
       3.34434512e-07       2.14465038e-06      -4.20007706e-06 
      -1.16253498e-07       2.47033922e-06      -4.83811518e-06 
      -3.57535589e-07       2.47033902e-06      -4.83811440e-06 
       1.15160972e-07       2.47033903e-06      -4.83811518e-06 
       3.56443063e-07       2.47033923e-06      -4.83811596e-06 
      -1.16253498e-07       2.47033922e-06      -4.83811518e-06 
      -3.57535589e-07       2.47033902e-06      -4.83811440e-06 
       1.15160972e-07       2.47033903e-06      -4.83811518e-06 
       3.56443063e-07       2.47033923e-06      -4.83811596e-06 
      -1.23273781e-07       2.81652189e-06      -5.51634346e-06 
      -3.79102113e-07       2.81652166e-06      -5.51634262e-06 
       1.22122182e-07       2.81652171e-06      -5.51634349e-06 
       3.77950514e-07       2.81652194e-06      -5.51634434e-06 
      -1.23273781e-07       2.81652189e-06      -5.51634346e-06 
      -3.79102113e-07       2.81652166e-06      -5.51634262e-06 
       1.22122182e-07       2.81652171e-06      -5.51634349e-06 
       3.77950514e-07       2.81652194e-06      -5.51634434e-06 
      -1.30132880e-07       3.18272553e-06      -6.23383892e-06 
      -4.00167885e-07       3.18272527e-06      -6.23383800e-06 
       1.28921862e-07       3.18272535e-06      -6.23383898e-06 
       3.98956868e-07       3.18272560e-06      -6.23383989e-06 
      -1.30132880e-07       3.18272553e-06      -6.23383892e-06 
      -4.00167885e-07       3.18272527e-06      -6.23383800e-06 
       1.28921862e-07       3.18272535e-06      -6.23383898e-06 
       3.98956868e-07       3.18272560e-06      -6.23383989e-06 
      -1.36830787e-07       3.56847723e-06      -6.98967924e-06 
      -4.20732900e-07       3.56847695e-06      -6.98967826e-06 
       1.35560018e-07       3.56847706e-06      -6.98967933e-06 
       4.19462130e-07       3.56847734e-06      -6.98968032e-06 
      -1.36830787e-07       3.56847723e-06      -6.98967924e-06 
      -4.20732900e-07       3.56847695e-06      -6.98967826e-06 
       1.35560018e-07       3.56847706e-06      -6.98967933e-06 
       4.19462130e-07       3.56847734e-06      -6.98968032e-06 
      -1.43367501e-07       3.97330412e-06      -7.78294212e-06 
      -4.40797154e-07       3.97330381e-06      -7.78294107e-06 
       1.42036653e-07       3.97330396e-06      -7.78294225e-06 
       4.39466305e-07       3.97330426e-06      -7.78294331e-06 
      -1.43367501e-07       3.97330412e-06      -7.78294212e-06 
      -4.40797154e-07       3.97330381e-06      -7.78294107e-06 
       1.42036653e-07       3.97330396e-06      -7.78294225e-06 
       4.39466305e-07       3.97330426e-06      -7.78294331e-06 
      -1.49743018e-07       4.39673330e-06      -8.61270526e-06 
      -4.60360642e-07       4.39673296e-06      -8.61270413e-06 
       1.48351771e-07       4.39673315e-06      -8.61270542e-06 
       4.58969396e-07       4.39673348e-06      -8.61270655e-06 
      -1.49743018e-07       4.39673330e-06      -8.61270526e-06 
      -4.60360642e-07       4.39673296e-06      -8.61270413e-06 
       1.48351771e-07       4.39673315e-06      -8.61270542e-06 
       4.58969396e-07       4.39673348e-06      -8.61270655e-06 
      -1.55957334e-07       4.83829188e-06      -9.47804634e-06 
      -4.79423363e-07       4.83829152e-06      -9.47804513e-06 
       1.54505376e-07       4.83829174e-06      -9.47804653e-06 
       4.77971406e-07       4.83829211e-06      -9.47804774e-06 
      -1.55957334e-07       4.83829188e-06      -9.47804634e-06 
      -4.79423363e-07       4.83829152e-06      -9.47804513e-06 
       1.54505376e-07       4.83829174e-06      -9.47804653e-06 
       4.77971406e-07       4.83829211e-06      -9.47804774e-06 
      -1.62008990e-07       5.29751611e-06      -1.03780603e-05 
      -4.98003625e-07       5.29751572e-06      -1.03780590e-05 
       1.60516720e-07       5.29751599e-06      -1.03780605e-05 
       4.96511355e-07       5.29751638e-06      -1.03780618e-05 
      -1.62008990e-07       5.29751611e-06      -1.03780603e-05 
      -4.98003625e-07       5.29751572e-06      -1.03780590e-05 
       1.60516720e-07       5.29751599e-06      -1.03780605e-05 
       4.96511355e-07       5.29751638e-06      -1.03780618e-05 
      -1.67918054e-07       5.77397931e-06      -1.13119135e-05 
      -5.16141659e-07       5.77397889e-06      -1.13119121e-05 
       1.66385027e-07       5.77397920e-06      -1.13119137e-05 
       5.14608631e-07       5.77397962e-06      -1.13119151e-05 
      -1.67918054e-07       5.77397931e-06      -1.13119135e-05 
      -5.16141659e-07       5.77397889e-06      -1.13119121e-05 
       1.66385027e-07       5.77397920e-06      -1.13119137e-05 
       5.14608631e-07       5.77397962e-06      -1.13119151e-05 
      -1.73684517e-07       6.26726419e-06      -1.22787909e-05 
      -5.33837459e-07       6.26726374e-06      -1.22787895e-05 
       1.72110301e-07       6.26726410e-06      -1.22787912e-05 
       5.32263243e-07       6.26726455e-06      -1.22787926e-05 
      -1.73684517e-07       6.26726419e-06      -1.22787909e-05 
      -5.33837459e-07       6.26726374e-06      -1.22787895e-05 
       1.72110301e-07       6.26726410e-06      -1.22787912e-05 
       5.32263243e-07       6.26726455e-06      -1.22787926e-05 
      -1.79308378e-07       6.77695347e-06      -1.32778774e-05 
      -5.51091021e-07       6.77695299e-06      -1.32778760e-05 
       1.77692549e-07       6.77695340e-06      -1.32778778e-05 
       5.49475192e-07       6.77695388e-06      -1.32778793e-05 
      -1.79308378e-07       6.77695347e-06      -1.32778774e-05 
      -5.51091021e-07       6.77695299e-06      -1.32778760e-05 
       1.77692549e-07       6.77695340e-06      -1.32778778e-05 
       5.49475192e-07       6.77695388e-06      -1.32778793e-05 
      -1.84789630e-07       7.30262989e-06      -1.43083581e-05 
      -5.67902340e-07       7.30262938e-06      -1.43083566e-05 
       1.83131774e-07       7.30262984e-06      -1.43083585e-05 
       5.66244484e-07       7.30263035e-06      -1.43083601e-05 
      -1.84789630e-07       7.30262989e-06      -1.43083581e-05 
      -5.67902340e-07       7.30262938e-06      -1.43083566e-05 
       1.83131774e-07       7.30262984e-06      -1.43083585e-05 
       5.66244484e-07       7.30263035e-06      -1.43083601e-05 
      -1.90128267e-07       7.84387616e-06      -1.53694178e-05 
      -5.84271409e-07       7.84387562e-06      -1.53694162e-05 
       1.88427983e-07       7.84387613e-06      -1.53694183e-05 
       5.82571126e-07       7.84387667e-06      -1.53694199e-05 
      -1.90128267e-07       7.84387616e-06      -1.53694178e-05 
      -5.84271409e-07       7.84387562e-06      -1.53694162e-05 
       1.88427983e-07       7.84387613e-06      -1.53694183e-05 
       5.82571126e-07       7.84387667e-06      -1.53694199e-05 
      -1.95324284e-07       8.40027501e-06      -1.64602416e-05 
      -6.00198224e-07       8.40027444e-06      -1.64602399e-05 
       1.93581181e-07       8.40027500e-06      -1.64602421e-05 
       5.98455123e-07       8.40027557e-06      -1.64602437e-05 
      -1.95324284e-07       8.40027501e-06      -1.64602416e-05 
      -6.00198224e-07       8.40027444e-06      -1.64602399e-05 
       1.93581181e-07       8.40027500e-06      -1.64602421e-05 
       5.98455123e-07       8.40027557e-06      -1.64602437e-05 
      -2.00377674e-07       8.97140916e-06      -1.75800142e-05 
      -6.15682779e-07       8.97140856e-06      -1.75800125e-05 
       1.98591376e-07       8.97140916e-06      -1.75800148e-05 
       6.13896480e-07       8.97140976e-06      -1.75800165e-05 
      -2.00377674e-07       8.97140916e-06      -1.75800142e-05 
      -6.15682779e-07       8.97140856e-06      -1.75800125e-05 
       1.98591376e-07       8.97140916e-06      -1.75800148e-05 
       6.13896480e-07       8.97140976e-06      -1.75800165e-05 
      -2.05288435e-07       9.55686133e-06      -1.87279208e-05 
      -6.30725069e-07       9.55686070e-06      -1.87279190e-05 
       2.03458568e-07       9.55686135e-06      -1.87279214e-05 
       6.28895202e-07       9.55686198e-06      -1.87279232e-05 
      -2.05288435e-07       9.55686133e-06      -1.87279208e-05 
      -6.30725069e-07       9.55686070e-06      -1.87279190e-05 
       2.03458568e-07       9.55686135e-06      -1.87279214e-05 
       6.28895202e-07       9.55686198e-06      -1.87279232e-05 
      -2.10056561e-07       1.01562142e-05      -1.99031462e-05 
      -6.45325088e-07       1.01562136e-05      -1.99031443e-05 
       2.08182767e-07       1.01562143e-05      -1.99031469e-05 
       6.43451294e-07       1.01562149e-05      -1.99031488e-05 
      -2.10056560e-07       1.01562142e-05      -1.99031462e-05 
      -6.45325088e-07       1.01562136e-05      -1.99031443e-05 
       2.08182766e-07       1.01562143e-05      -1.99031469e-05 
       6.43451295e-07       1.01562149e-05      -1.99031488e-05 
      -2.14684293e-07       1.07690599e-05      -2.11048932e-05 
      -6.59505056e-07       1.07690592e-05      -2.11048913e-05 
       2.12780351e-07       1.07690599e-05      -2.11048939e-05 
       6.57601114e-07       1.07690606e-05      -2.11048959e-05 
      -2.14684293e-07       1.07690599e-05      -2.11048932e-05 
      -6.59505056e-07       1.07690592e-05      -2.11048913e-05 
       2.12780351e-07       1.07690599e-05      -2.11048939e-05 
       6.57601114e-07       1.07690606e-05      -2.11048959e-05 
      -2.19188342e-07       1.13950275e-05      -2.23324371e-05 
      -6.73301859e-07       1.13950267e-05      -2.23324351e-05 
       2.17253826e-07       1.13950275e-05      -2.23324378e-05 
       6.71367342e-07       1.13950283e-05      -2.23324398e-05 
      -2.19188342e-07       1.13950275e-05      -2.23324371e-05 
      -6.73301859e-07       1.13950267e-05      -2.23324351e-05 
       2.17253826e-07       1.13950275e-05      -2.23324378e-05 
       6.71367342e-07       1.13950283e-05      -2.23324398e-05 
      -2.23568700e-07       1.20337557e-05      -2.35850712e-05 
      -6.86715489e-07       1.20337549e-05      -2.35850692e-05 
       2.21603198e-07       1.20337558e-05      -2.35850720e-05 
       6.84749987e-07       1.20337565e-05      -2.35850741e-05 
      -2.23568700e-07       1.20337557e-05      -2.35850712e-05 
      -6.86715489e-07       1.20337549e-05      -2.35850692e-05 
       2.21603198e-07       1.20337558e-05      -2.35850720e-05 
       6.84749987e-07       1.20337565e-05      -2.35850741e-05 
      -2.27825362e-07       1.26848831e-05      -2.48620893e-05 
      -6.99745943e-07       1.26848823e-05      -2.48620872e-05 
       2.25828471e-07       1.26848832e-05      -2.48620902e-05 
       6.97749052e-07       1.26848840e-05      -2.48620923e-05 
      -2.27825362e-07       1.26848831e-05      -2.48620893e-05 
      -6.99745943e-07       1.26848823e-05      -2.48620872e-05 
       2.25828471e-07       1.26848832e-05      -2.48620902e-05 
       6.97749052e-07       1.26848840e-05      -2.48620923e-05 
      -2.31958323e-07       1.33480484e-05      -2.61627849e-05 
      -7.12393215e-07       1.33480476e-05      -2.61627827e-05 
       2.29929652e-07       1.33480486e-05      -2.61627858e-05 
       7.10364544e-07       1.33480494e-05      -2.61627880e-05 
      -2.31958323e-07       1.33480484e-05      -2.61627849e-05 
      -7.12393215e-07       1.33480476e-05      -2.61627827e-05 
       2.29929652e-07       1.33480486e-05      -2.61627858e-05 
       7.10364544e-07       1.33480494e-05      -2.61627880e-05 
      -2.35967577e-07       1.40228903e-05      -2.74864515e-05 
      -7.24657299e-07       1.40228895e-05      -2.74864492e-05 
       2.33906746e-07       1.40228905e-05      -2.74864524e-05 
       7.22596468e-07       1.40228913e-05      -2.74864547e-05 
      -2.35967577e-07       1.40228903e-05      -2.74864515e-05 
      -7.24657299e-07       1.40228895e-05      -2.74864492e-05 
       2.33906746e-07       1.40228905e-05      -2.74864524e-05 
       7.22596468e-07       1.40228913e-05      -2.74864547e-05 
      -2.39853117e-07       1.47090473e-05      -2.88323827e-05 
      -7.36538187e-07       1.47090465e-05      -2.88323804e-05 
       2.37759760e-07       1.47090475e-05      -2.88323837e-05 
       7.34444831e-07       1.47090484e-05      -2.88323860e-05 
      -2.39853117e-07       1.47090473e-05      -2.88323827e-05 
      -7.36538187e-07       1.47090465e-05      -2.88323804e-05 
       2.37759760e-07       1.47090475e-05      -2.88323837e-05 
       7.34444831e-07       1.47090484e-05      -2.88323860e-05 
      -2.43614936e-07       1.54061582e-05      -3.01998720e-05 
      -7.48035874e-07       1.54061573e-05      -3.01998697e-05 
       2.41488701e-07       1.54061584e-05      -3.01998731e-05 
       7.45909639e-07       1.54061593e-05      -3.01998754e-05 
      -2.43614936e-07       1.54061582e-05      -3.01998720e-05 
      -7.48035874e-07       1.54061573e-05      -3.01998697e-05 