# vtk DataFile Version 2.0
./output/onsasExample_BladeCantileverBeamNoPitch_windVel3DDynamic 3D/onsasExample_BladeCantileverBeamNoPitch_windVel3DDynamic 3D_0365.vtk
ASCII
DATASET UNSTRUCTURED_GRID

POINTS 800 float
      -1.530530e-23      -7.180703e-02      -7.180703e-02 
       1.496774e-23       7.180703e-02      -7.180703e-02 
       1.530530e-23       7.180703e-02       7.180703e-02 
      -1.496774e-23      -7.180703e-02       7.180703e-02 
       2.000000e-01      -7.180702e-02      -7.180706e-02 
       2.000000e-01       7.180705e-02      -7.180706e-02 
       2.000000e-01       7.180705e-02       7.180701e-02 
       2.000000e-01      -7.180702e-02       7.180701e-02 
       2.000000e-01      -7.180702e-02      -7.180706e-02 
       2.000000e-01       7.180705e-02      -7.180706e-02 
       2.000000e-01       7.180705e-02       7.180701e-02 
       2.000000e-01      -7.180702e-02       7.180701e-02 
       4.000000e-01      -7.180698e-02      -7.180714e-02 
       3.999999e-01       7.180709e-02      -7.180714e-02 
       4.000000e-01       7.180709e-02       7.180692e-02 
       4.000001e-01      -7.180698e-02       7.180692e-02 
       4.000000e-01      -7.180698e-02      -7.180714e-02 
       3.999999e-01       7.180709e-02      -7.180714e-02 
       4.000000e-01       7.180709e-02       7.180692e-02 
       4.000001e-01      -7.180698e-02       7.180692e-02 
       6.000000e-01      -7.180691e-02      -7.180728e-02 
       5.999999e-01       7.180716e-02      -7.180728e-02 
       6.000000e-01       7.180716e-02       7.180679e-02 
       6.000001e-01      -7.180691e-02       7.180679e-02 
       6.000000e-01      -7.180691e-02      -7.180728e-02 
       5.999999e-01       7.180716e-02      -7.180728e-02 
       6.000000e-01       7.180716e-02       7.180679e-02 
       6.000001e-01      -7.180691e-02       7.180679e-02 
       8.000000e-01      -7.180682e-02      -7.180746e-02 
       7.999999e-01       7.180725e-02      -7.180746e-02 
       8.000000e-01       7.180725e-02       7.180661e-02 
       8.000001e-01      -7.180682e-02       7.180661e-02 
       8.000000e-01      -7.180682e-02      -7.180746e-02 
       7.999999e-01       7.180725e-02      -7.180746e-02 
       8.000000e-01       7.180725e-02       7.180661e-02 
       8.000001e-01      -7.180682e-02       7.180661e-02 
       1.000000e+00      -7.180669e-02      -7.180770e-02 
       9.999999e-01       7.180737e-02      -7.180770e-02 
       1.000000e+00       7.180737e-02       7.180637e-02 
       1.000000e+00      -7.180669e-02       7.180637e-02 
       1.000000e+00      -7.180669e-02      -7.180770e-02 
       9.999999e-01       7.180737e-02      -7.180770e-02 
       1.000000e+00       7.180737e-02       7.180637e-02 
       1.000000e+00      -7.180669e-02       7.180637e-02 
       1.200000e+00      -7.180655e-02      -7.180798e-02 
       1.200000e+00       7.180752e-02      -7.180798e-02 
       1.200000e+00       7.180752e-02       7.180608e-02 
       1.200000e+00      -7.180655e-02       7.180608e-02 
       1.200000e+00      -7.180655e-02      -7.180798e-02 
       1.200000e+00       7.180752e-02      -7.180798e-02 
       1.200000e+00       7.180752e-02       7.180608e-02 
       1.200000e+00      -7.180655e-02       7.180608e-02 
       1.400000e+00      -7.180638e-02      -7.180832e-02 
       1.400000e+00       7.180769e-02      -7.180832e-02 
       1.400000e+00       7.180769e-02       7.180575e-02 
       1.400000e+00      -7.180638e-02       7.180575e-02 
       1.400000e+00      -7.180638e-02      -7.180832e-02 
       1.400000e+00       7.180769e-02      -7.180832e-02 
       1.400000e+00       7.180769e-02       7.180575e-02 
       1.400000e+00      -7.180638e-02       7.180575e-02 
       1.600000e+00      -7.180618e-02      -7.180870e-02 
       1.600000e+00       7.180788e-02      -7.180870e-02 
       1.600000e+00       7.180788e-02       7.180537e-02 
       1.600000e+00      -7.180618e-02       7.180537e-02 
       1.600000e+00      -7.180618e-02      -7.180870e-02 
       1.600000e+00       7.180788e-02      -7.180870e-02 
       1.600000e+00       7.180788e-02       7.180537e-02 
       1.600000e+00      -7.180618e-02       7.180537e-02 
       1.800000e+00      -7.180596e-02      -7.180913e-02 
       1.800000e+00       7.180810e-02      -7.180913e-02 
       1.800000e+00       7.180810e-02       7.180494e-02 
       1.800000e+00      -7.180596e-02       7.180494e-02 
       1.800000e+00      -7.180596e-02      -7.180913e-02 
       1.800000e+00       7.180810e-02      -7.180913e-02 
       1.800000e+00       7.180810e-02       7.180494e-02 
       1.800000e+00      -7.180596e-02       7.180494e-02 
       2.000000e+00      -7.180572e-02      -7.180960e-02 
       2.000000e+00       7.180834e-02      -7.180960e-02 
       2.000000e+00       7.180834e-02       7.180446e-02 
       2.000000e+00      -7.180572e-02       7.180446e-02 
       2.000000e+00      -7.180572e-02      -7.180960e-02 
       2.000000e+00       7.180834e-02      -7.180960e-02 
       2.000000e+00       7.180834e-02       7.180446e-02 
       2.000000e+00      -7.180572e-02       7.180446e-02 
       2.200000e+00      -7.180546e-02      -7.181012e-02 
       2.200000e+00       7.180861e-02      -7.181012e-02 
       2.200000e+00       7.180861e-02       7.180394e-02 
       2.200000e+00      -7.180546e-02       7.180394e-02 
       2.200000e+00      -7.180546e-02      -7.181012e-02 
       2.200000e+00       7.180861e-02      -7.181012e-02 
       2.200000e+00       7.180861e-02       7.180394e-02 
       2.200000e+00      -7.180546e-02       7.180394e-02 
       2.400000e+00      -7.180517e-02      -7.181069e-02 
       2.400000e+00       7.180889e-02      -7.181069e-02 
       2.400000e+00       7.180889e-02       7.180338e-02 
       2.400000e+00      -7.180517e-02       7.180338e-02 
       2.400000e+00      -7.180517e-02      -7.181069e-02 
       2.400000e+00       7.180889e-02      -7.181069e-02 
       2.400000e+00       7.180889e-02       7.180338e-02 
       2.400000e+00      -7.180517e-02       7.180338e-02 
       2.600000e+00      -7.180486e-02      -7.181129e-02 
       2.600000e+00       7.180920e-02      -7.181129e-02 
       2.600000e+00       7.180920e-02       7.180277e-02 
       2.600000e+00      -7.180486e-02       7.180277e-02 
       2.600000e+00      -7.180486e-02      -7.181129e-02 
       2.600000e+00       7.180920e-02      -7.181129e-02 
       2.600000e+00       7.180920e-02       7.180277e-02 
       2.600000e+00      -7.180486e-02       7.180277e-02 
       2.800000e+00      -7.180453e-02      -7.181194e-02 
       2.800000e+00       7.180953e-02      -7.181194e-02 
       2.800000e+00       7.180953e-02       7.180213e-02 
       2.800000e+00      -7.180453e-02       7.180213e-02 
       2.800000e+00      -7.180453e-02      -7.181194e-02 
       2.800000e+00       7.180953e-02      -7.181194e-02 
       2.800000e+00       7.180953e-02       7.180213e-02 
       2.800000e+00      -7.180453e-02       7.180213e-02 
       3.000000e+00      -7.180418e-02      -7.181263e-02 
       3.000000e+00       7.180988e-02      -7.181263e-02 
       3.000000e+00       7.180988e-02       7.180144e-02 
       3.000000e+00      -7.180418e-02       7.180144e-02 
       3.000000e+00      -7.180418e-02      -7.181263e-02 
       3.000000e+00       7.180988e-02      -7.181263e-02 
       3.000000e+00       7.180988e-02       7.180144e-02 
       3.000000e+00      -7.180418e-02       7.180144e-02 
       3.200000e+00      -7.180381e-02      -7.181336e-02 
       3.200000e+00       7.181025e-02      -7.181336e-02 
       3.200000e+00       7.181025e-02       7.180071e-02 
       3.200000e+00      -7.180381e-02       7.180071e-02 
       3.200000e+00      -7.180381e-02      -7.181336e-02 
       3.200000e+00       7.181025e-02      -7.181336e-02 
       3.200000e+00       7.181025e-02       7.180071e-02 
       3.200000e+00      -7.180381e-02       7.180071e-02 
       3.400000e+00      -7.180342e-02      -7.181412e-02 
       3.400000e+00       7.181064e-02      -7.181412e-02 
       3.400000e+00       7.181064e-02       7.179994e-02 
       3.400000e+00      -7.180342e-02       7.179994e-02 
       3.400000e+00      -7.180342e-02      -7.181412e-02 
       3.400000e+00       7.181064e-02      -7.181412e-02 
       3.400000e+00       7.181064e-02       7.179994e-02 
       3.400000e+00      -7.180342e-02       7.179994e-02 
       3.600000e+00      -7.180301e-02      -7.181493e-02 
       3.600000e+00       7.181105e-02      -7.181493e-02 
       3.600000e+00       7.181105e-02       7.179914e-02 
       3.600000e+00      -7.180301e-02       7.179914e-02 
       3.600000e+00      -7.180301e-02      -7.181493e-02 
       3.600000e+00       7.181105e-02      -7.181493e-02 
       3.600000e+00       7.181105e-02       7.179914e-02 
       3.600000e+00      -7.180301e-02       7.179914e-02 
       3.800000e+00      -7.180258e-02      -7.181577e-02 
       3.800000e+00       7.181148e-02      -7.181577e-02 
       3.800000e+00       7.181148e-02       7.179830e-02 
       3.800000e+00      -7.180258e-02       7.179830e-02 
       3.800000e+00      -7.180258e-02      -7.181577e-02 
       3.800000e+00       7.181148e-02      -7.181577e-02 
       3.800000e+00       7.181148e-02       7.179830e-02 
       3.800000e+00      -7.180258e-02       7.179830e-02 
       4.000000e+00      -7.180214e-02      -7.181665e-02 
       4.000000e+00       7.181193e-02      -7.181665e-02 
       4.000000e+00       7.181193e-02       7.179742e-02 
       4.000000e+00      -7.180214e-02       7.179742e-02 
       4.000000e+00      -7.180214e-02      -7.181665e-02 
       4.000000e+00       7.181193e-02      -7.181665e-02 
       4.000000e+00       7.181193e-02       7.179742e-02 
       4.000000e+00      -7.180214e-02       7.179742e-02 
       4.200000e+00      -7.180167e-02      -7.181756e-02 
[...]
POINT_DATA       800 
VECTORS Displacements float
      -1.53053037e-23       0.00000000e+00       0.00000000e+00 
       1.49677428e-23       0.00000000e+00      -1.38777878e-17 
       1.53053037e-23       0.00000000e+00       0.00000000e+00 
      -1.49677428e-23       0.00000000e+00       1.38777878e-17 
      -9.60592472e-09       1.38906650e-08      -2.72533583e-08 
      -2.94916544e-08       1.38906636e-08      -2.72533253e-08 
       9.52486093e-09       1.38906361e-08      -2.72533306e-08 
       2.94105906e-08       1.38906375e-08      -2.72533636e-08 
      -9.60592472e-09       1.38906650e-08      -2.72533583e-08 
      -2.94916544e-08       1.38906636e-08      -2.72533253e-08 
       9.52486093e-09       1.38906361e-08      -2.72533306e-08 
       2.94105906e-08       1.38906375e-08      -2.72533636e-08 
      -1.90321692e-08       5.52105838e-08      -1.08327560e-07 
      -5.84244378e-08       5.52105784e-08      -1.08327489e-07 
       1.88698673e-08       5.52105286e-08      -1.08327510e-07 
       5.82621358e-08       5.52105340e-08      -1.08327581e-07 
      -1.90321692e-08       5.52105838e-08      -1.08327560e-07 
      -5.84244378e-08       5.52105784e-08      -1.08327489e-07 
       1.88698673e-08       5.52105286e-08      -1.08327510e-07 
       5.82621358e-08       5.52105340e-08      -1.08327581e-07 
      -2.82787319e-08       1.23431687e-07      -2.42193840e-07 
      -8.67983486e-08       1.23431675e-07      -2.42193726e-07 
       2.80350210e-08       1.23431608e-07      -2.42193772e-07 
       8.65546377e-08       1.23431620e-07      -2.42193886e-07 
      -2.82787319e-08       1.23431687e-07      -2.42193840e-07 
      -8.67983486e-08       1.23431675e-07      -2.42193726e-07 
       2.80350210e-08       1.23431608e-07      -2.42193772e-07 
       8.65546377e-08       1.23431620e-07      -2.42193886e-07 
      -3.73456109e-08       2.18025907e-07      -4.27823434e-07 
      -1.14613385e-07       2.18025886e-07      -4.27823273e-07 
       3.70203234e-08       2.18025806e-07      -4.27823353e-07 
       1.14288097e-07       2.18025827e-07      -4.27823514e-07 
      -3.73456109e-08       2.18025907e-07      -4.27823434e-07 
      -1.14613385e-07       2.18025886e-07      -4.27823273e-07 
       3.70203234e-08       2.18025806e-07      -4.27823353e-07 
       1.14288097e-07       2.18025827e-07      -4.27823514e-07 
      -4.62328048e-08       3.38465173e-07      -6.64187578e-07 
      -1.41869546e-07       3.38465141e-07      -6.64187364e-07 
       4.58257763e-08       3.38465053e-07      -6.64187487e-07 
       1.41462517e-07       3.38465084e-07      -6.64187701e-07 
      -4.62328048e-08       3.38465173e-07      -6.64187578e-07 
      -1.41869546e-07       3.38465141e-07      -6.64187364e-07 
       4.58257763e-08       3.38465053e-07      -6.64187487e-07 
       1.41462517e-07       3.38465084e-07      -6.64187701e-07 
      -5.49403119e-08       4.84221417e-07      -9.50257506e-07 
      -1.68566829e-07       4.84221372e-07      -9.50257237e-07 
       5.44513812e-08       4.84221279e-07      -9.50257410e-07 
       1.68077898e-07       4.84221324e-07      -9.50257680e-07 
      -5.49403119e-08       4.84221417e-07      -9.50257506e-07 
      -1.68566829e-07       4.84221372e-07      -9.50257237e-07 
       5.44513812e-08       4.84221279e-07      -9.50257410e-07 
       1.68077898e-07       4.84221324e-07      -9.50257680e-07 
      -6.34681303e-08       6.54766570e-07      -1.28500446e-06 
      -1.94705232e-07       6.54766510e-07      -1.28500413e-06 
       6.28971399e-08       6.54766416e-07      -1.28500436e-06 
       1.94134242e-07       6.54766476e-07      -1.28500469e-06 
      -6.34681303e-08       6.54766570e-07      -1.28500446e-06 
      -1.94705232e-07       6.54766510e-07      -1.28500413e-06 
       6.28971399e-08       6.54766416e-07      -1.28500436e-06 
       1.94134242e-07       6.54766476e-07      -1.28500469e-06 
      -7.18162585e-08       8.49572563e-07      -1.66739966e-06 
      -2.20284755e-07       8.49572486e-07      -1.66739927e-06 
       7.11630543e-08       8.49572395e-07      -1.66739956e-06 
       2.19631551e-07       8.49572472e-07      -1.66739995e-06 
      -7.18162585e-08       8.49572563e-07      -1.66739966e-06 
      -2.20284755e-07       8.49572486e-07      -1.66739927e-06 
       7.11630543e-08       8.49572395e-07      -1.66739956e-06 
       2.19631551e-07       8.49572472e-07      -1.66739995e-06 
      -7.99846946e-08       1.06811133e-06      -2.09641435e-06 
      -2.45305395e-07       1.06811123e-06      -2.09641390e-06 
       7.92491257e-08       1.06811115e-06      -2.09641426e-06 
       2.44569826e-07       1.06811124e-06      -2.09641472e-06 
      -7.99846946e-08       1.06811133e-06      -2.09641435e-06 
      -2.45305395e-07       1.06811123e-06      -2.09641390e-06 
       7.92491257e-08       1.06811115e-06      -2.09641426e-06 
       2.44569826e-07       1.06811124e-06      -2.09641472e-06 
      -8.79734374e-08       1.30985479e-06      -2.57101977e-06 
      -2.69767151e-07       1.30985468e-06      -2.57101925e-06 
       8.71553558e-08       1.30985460e-06      -2.57101969e-06 
       2.68949070e-07       1.30985472e-06      -2.57102022e-06 
      -8.79734374e-08       1.30985479e-06      -2.57101977e-06 
      -2.69767151e-07       1.30985468e-06      -2.57101925e-06 
       8.71553563e-08       1.30985460e-06      -2.57101969e-06 
       2.68949070e-07       1.30985472e-06      -2.57102022e-06 
      -9.57764517e-08       1.57428392e-06      -3.09020393e-06 
      -2.93683601e-07       1.57428378e-06      -3.09020334e-06 
       9.49049959e-08       1.57428373e-06      -3.09020387e-06 
       2.92812145e-07       1.57428387e-06      -3.09020445e-06 
      -9.57764517e-08       1.57428392e-06      -3.09020393e-06 
      -2.93683601e-07       1.57428378e-06      -3.09020334e-06 
       9.49049959e-08       1.57428373e-06      -3.09020387e-06 
       2.92812145e-07       1.57428387e-06      -3.09020445e-06 
      -1.03418184e-07       1.86091666e-06      -3.65302578e-06 
      -3.17099417e-07       1.86091650e-06      -3.65302513e-06 
       1.02492967e-07       1.86091648e-06      -3.65302574e-06 
       3.16174200e-07       1.86091664e-06      -3.65302639e-06 
      -1.03418184e-07       1.86091666e-06      -3.65302578e-06 
      -3.17099417e-07       1.86091650e-06      -3.65302513e-06 
       1.02492967e-07       1.86091648e-06      -3.65302574e-06 
       3.16174200e-07       1.86091664e-06      -3.65302639e-06 
      -1.10898631e-07       2.16928043e-06      -4.25856299e-06 
      -3.40014594e-07       2.16928025e-06      -4.25856228e-06 
       1.09919274e-07       2.16928025e-06      -4.25856298e-06 
       3.39035237e-07       2.16928044e-06      -4.25856370e-06 
      -1.10898631e-07       2.16928043e-06      -4.25856299e-06 
      -3.40014594e-07       2.16928025e-06      -4.25856228e-06 
       1.09919274e-07       2.16928025e-06      -4.25856298e-06 
       3.39035237e-07       2.16928044e-06      -4.25856370e-06 
      -1.18217788e-07       2.49890264e-06      -4.90589323e-06 
      -3.62429128e-07       2.49890243e-06      -4.90589245e-06 
       1.17183921e-07       2.49890247e-06      -4.90589325e-06 
       3.61395260e-07       2.49890268e-06      -4.90589403e-06 
      -1.18217788e-07       2.49890264e-06      -4.90589323e-06 
      -3.62429128e-07       2.49890243e-06      -4.90589245e-06 
       1.17183921e-07       2.49890247e-06      -4.90589325e-06 
       3.61395260e-07       2.49890268e-06      -4.90589403e-06 
      -1.25375653e-07       2.84931069e-06      -5.59409416e-06 
      -3.84343017e-07       2.84931046e-06      -5.59409331e-06 
       1.24286911e-07       2.84931053e-06      -5.59409422e-06 
       3.83254275e-07       2.84931077e-06      -5.59409506e-06 
      -1.25375653e-07       2.84931069e-06      -5.59409416e-06 
      -3.84343017e-07       2.84931046e-06      -5.59409331e-06 
       1.24286911e-07       2.84931053e-06      -5.59409422e-06 
       3.83254275e-07       2.84931077e-06      -5.59409506e-06 
      -1.32372219e-07       3.22003201e-06      -6.32224344e-06 
      -4.05756253e-07       3.22003175e-06      -6.32224253e-06 
       1.31228249e-07       3.22003185e-06      -6.32224353e-06 
       4.04612284e-07       3.22003211e-06      -6.32224445e-06 
      -1.32372219e-07       3.22003201e-06      -6.32224344e-06 
      -4.05756253e-07       3.22003175e-06      -6.32224253e-06 
       1.31228249e-07       3.22003185e-06      -6.32224353e-06 
       4.04612284e-07       3.22003211e-06      -6.32224445e-06 
      -1.39207482e-07       3.61059399e-06      -7.08941874e-06 
      -4.26668835e-07       3.61059370e-06      -7.08941775e-06 
       1.38007939e-07       3.61059384e-06      -7.08941886e-06 
       4.25469292e-07       3.61059413e-06      -7.08941985e-06 
      -1.39207482e-07       3.61059399e-06      -7.08941874e-06 
      -4.26668835e-07       3.61059370e-06      -7.08941775e-06 
       1.38007939e-07       3.61059384e-06      -7.08941886e-06 
       4.25469292e-07       3.61059413e-06      -7.08941985e-06 
      -1.45881440e-07       4.02052404e-06      -7.89469771e-06 
      -4.47080759e-07       4.02052373e-06      -7.89469665e-06 
       1.44625985e-07       4.02052391e-06      -7.89469787e-06 
       4.45825303e-07       4.02052423e-06      -7.89469893e-06 
      -1.45881440e-07       4.02052404e-06      -7.89469771e-06 
      -4.47080759e-07       4.02052373e-06      -7.89469665e-06 
       1.44625985e-07       4.02052391e-06      -7.89469787e-06 
       4.45825303e-07       4.02052423e-06      -7.89469893e-06 
      -1.52394088e-07       4.44934959e-06      -8.73715802e-06 
      -4.66992018e-07       4.44934924e-06      -8.73715689e-06 
       1.51082391e-07       4.44934946e-06      -8.73715822e-06 
       4.65680322e-07       4.44934981e-06      -8.73715935e-06 
      -1.52394088e-07       4.44934959e-06      -8.73715802e-06 
      -4.66992018e-07       4.44934924e-06      -8.73715689e-06 
       1.51082391e-07       4.44934946e-06      -8.73715822e-06 
       4.65680322e-07       4.44934981e-06      -8.73715935e-06 
      -1.58745421e-07       4.89659803e-06      -9.61587733e-06 
      -4.86402611e-07       4.89659766e-06      -9.61587613e-06 
       1.57377161e-07       4.89659792e-06      -9.61587757e-06 
       4.85034351e-07       4.89659829e-06      -9.61587878e-06 
      -1.58745421e-07       4.89659803e-06      -9.61587733e-06 
      -4.86402611e-07       4.89659766e-06      -9.61587613e-06 
       1.57377161e-07       4.89659792e-06      -9.61587757e-06 
       4.85034351e-07       4.89659829e-06      -9.61587878e-06 
      -1.64934543e-07       5.36180611e-06      -1.05299514e-05 
      -5.05331710e-07       5.36180571e-06      -1.05299501e-05 
       1.63529901e-07       5.36180602e-06      -1.05299517e-05 
       5.03927067e-07       5.36180642e-06      -1.05299529e-05 
      -1.64934543e-07       5.36180611e-06      -1.05299514e-05 
      -5.05331710e-07       5.36180571e-06      -1.05299501e-05 
       1.63529901e-07       5.36180602e-06      -1.05299517e-05 
       5.03927067e-07       5.36180642e-06      -1.05299529e-05 
      -1.70980954e-07       5.84454767e-06      -1.14785474e-05 
      -5.23818686e-07       5.84454724e-06      -1.14785460e-05 
       1.69539468e-07       5.84454760e-06      -1.14785477e-05 
       5.22377200e-07       5.84454804e-06      -1.14785490e-05 
      -1.70980954e-07       5.84454767e-06      -1.14785474e-05 
      -5.23818686e-07       5.84454724e-06      -1.14785460e-05 
       1.69539468e-07       5.84454760e-06      -1.14785477e-05 
       5.22377200e-07       5.84454804e-06      -1.14785490e-05 
      -1.76884646e-07       6.34440575e-06      -1.24608502e-05 
      -5.41863534e-07       6.34440529e-06      -1.24608488e-05 
       1.75405868e-07       6.34440570e-06      -1.24608506e-05 
       5.40384756e-07       6.34440616e-06      -1.24608520e-05 
      -1.76884646e-07       6.34440575e-06      -1.24608502e-05 
      -5.41863534e-07       6.34440529e-06      -1.24608488e-05 
       1.75405868e-07       6.34440570e-06      -1.24608506e-05 
       5.40384756e-07       6.34440616e-06      -1.24608520e-05 
      -1.82645614e-07       6.86096338e-06      -1.34760448e-05 
      -5.59466248e-07       6.86096288e-06      -1.34760434e-05 
       1.81129105e-07       6.86096334e-06      -1.34760453e-05 
       5.57949740e-07       6.86096384e-06      -1.34760468e-05 
      -1.82645614e-07       6.86096338e-06      -1.34760448e-05 
      -5.59466248e-07       6.86096288e-06      -1.34760434e-05 
       1.81129105e-07       6.86096334e-06      -1.34760453e-05 
       5.57949740e-07       6.86096384e-06      -1.34760468e-05 
      -1.88263854e-07       7.39380358e-06      -1.45233161e-05 
      -5.76626825e-07       7.39380306e-06      -1.45233146e-05 
       1.86709186e-07       7.39380357e-06      -1.45233166e-05 
       5.75072156e-07       7.39380410e-06      -1.45233182e-05 
      -1.88263854e-07       7.39380358e-06      -1.45233161e-05 
      -5.76626825e-07       7.39380306e-06      -1.45233146e-05 
       1.86709186e-07       7.39380357e-06      -1.45233166e-05 
       5.75072156e-07       7.39380410e-06      -1.45233182e-05 
      -1.93739360e-07       7.94250941e-06      -1.56018490e-05 
      -5.93345256e-07       7.94250886e-06      -1.56018474e-05 
       1.92146115e-07       7.94250942e-06      -1.56018495e-05 
       5.91752011e-07       7.94250998e-06      -1.56018511e-05 
      -1.93739360e-07       7.94250941e-06      -1.56018490e-05 
      -5.93345256e-07       7.94250886e-06      -1.56018474e-05 
       1.92146115e-07       7.94250942e-06      -1.56018495e-05 
       5.91752011e-07       7.94250998e-06      -1.56018511e-05 
      -1.99072125e-07       8.50666390e-06      -1.67108283e-05 
      -6.09621537e-07       8.50666331e-06      -1.67108266e-05 
       1.97439898e-07       8.50666393e-06      -1.67108289e-05 
       6.07989310e-07       8.50666452e-06      -1.67108306e-05 
      -1.99072125e-07       8.50666390e-06      -1.67108283e-05 
      -6.09621537e-07       8.50666331e-06      -1.67108266e-05 
       1.97439898e-07       8.50666393e-06      -1.67108289e-05 
       6.07989310e-07       8.50666452e-06      -1.67108306e-05 
      -2.04262145e-07       9.08585008e-06      -1.78494390e-05 
      -6.25455663e-07       9.08584946e-06      -1.78494373e-05 
       2.02590543e-07       9.08585013e-06      -1.78494397e-05 
       6.23784061e-07       9.08585075e-06      -1.78494414e-05 
      -2.04262145e-07       9.08585008e-06      -1.78494390e-05 
      -6.25455663e-07       9.08584946e-06      -1.78494373e-05 
       2.02590543e-07       9.08585013e-06      -1.78494397e-05 
       6.23784061e-07       9.08585075e-06      -1.78494414e-05 
      -2.09309414e-07       9.67965098e-06      -1.90168661e-05 
      -6.40847628e-07       9.67965033e-06      -1.90168642e-05 
       2.07598051e-07       9.67965105e-06      -1.90168667e-05 
       6.39136266e-07       9.67965170e-06      -1.90168686e-05 
      -2.09309414e-07       9.67965098e-06      -1.90168661e-05 
      -6.40847628e-07       9.67965033e-06      -1.90168642e-05 
       2.07598051e-07       9.67965105e-06      -1.90168667e-05 
       6.39136266e-07       9.67965170e-06      -1.90168686e-05 
      -2.14213927e-07       1.02876496e-05      -2.02122943e-05 
      -6.55797428e-07       1.02876490e-05      -2.02122924e-05 
       2.12462430e-07       1.02876497e-05      -2.02122950e-05 
       6.54045930e-07       1.02876504e-05      -2.02122969e-05 
      -2.14213927e-07       1.02876496e-05      -2.02122943e-05 
      -6.55797428e-07       1.02876490e-05      -2.02122924e-05 
       2.12462431e-07       1.02876497e-05      -2.02122950e-05 
       6.54045931e-07       1.02876504e-05      -2.02122969e-05 
      -2.18978156e-07       1.09094385e-05      -2.14349266e-05 
      -6.70327584e-07       1.09094377e-05      -2.14349247e-05 
       2.17199830e-07       1.09094386e-05      -2.14349274e-05 
       6.68549257e-07       1.09094393e-05      -2.14349294e-05 
      -2.18978156e-07       1.09094385e-05      -2.14349266e-05 
      -6.70327584e-07       1.09094377e-05      -2.14349247e-05 
       2.17199830e-07       1.09094386e-05      -2.14349274e-05 
       6.68549257e-07       1.09094393e-05      -2.14349294e-05 
      -2.23617968e-07       1.15446467e-05      -2.26840370e-05 
      -6.84473601e-07       1.15446459e-05      -2.26840350e-05 
       2.21812367e-07       1.15446468e-05      -2.26840378e-05 
       6.82668000e-07       1.15446475e-05      -2.26840399e-05 
      -2.23617968e-07       1.15446467e-05      -2.26840370e-05 
      -6.84473601e-07       1.15446459e-05      -2.26840350e-05 
       2.21812367e-07       1.15446468e-05      -2.26840378e-05 
       6.82668000e-07       1.15446475e-05      -2.26840399e-05 
      -2.28133353e-07       1.21929126e-05      -2.39589165e-05 
      -6.98235472e-07       1.21929118e-05      -2.39589144e-05 
       2.26300047e-07       1.21929127e-05      -2.39589174e-05 
       6.96402166e-07       1.21929135e-05      -2.39589195e-05 
      -2.28133353e-07       1.21929126e-05      -2.39589165e-05 
      -6.98235472e-07       1.21929118e-05      -2.39589144e-05 
       2.26300047e-07       1.21929127e-05      -2.39589174e-05 
       6.96402166e-07       1.21929135e-05      -2.39589195e-05 
      -2.32524308e-07       1.28538745e-05      -2.52588563e-05 
      -7.11613192e-07       1.28538737e-05      -2.52588541e-05 
       2.30662876e-07       1.28538747e-05      -2.52588572e-05 
       7.09751760e-07       1.28538755e-05      -2.52588594e-05 
      -2.32524308e-07       1.28538745e-05      -2.52588563e-05 
      -7.11613192e-07       1.28538737e-05      -2.52588541e-05 
       2.30662876e-07       1.28538747e-05      -2.52588572e-05 
       7.09751760e-07       1.28538755e-05      -2.52588594e-05 
      -2.36790827e-07       1.35271707e-05      -2.65831475e-05 
      -7.24606756e-07       1.35271699e-05      -2.65831453e-05 
       2.34900860e-07       1.35271709e-05      -2.65831485e-05 
       7.22716789e-07       1.35271717e-05      -2.65831507e-05 
      -2.36790827e-07       1.35271707e-05      -2.65831475e-05 
      -7.24606756e-07       1.35271699e-05      -2.65831453e-05 
       2.34900860e-07       1.35271709e-05      -2.65831485e-05 
       7.22716789e-07       1.35271717e-05      -2.65831507e-05 
      -2.40932903e-07       1.42124395e-05      -2.79310813e-05 
      -7.37216156e-07       1.42124387e-05      -2.79310791e-05 
       2.39014005e-07       1.42124398e-05      -2.79310824e-05 
       7.35297257e-07       1.42124406e-05      -2.79310846e-05 
      -2.40932903e-07       1.42124395e-05      -2.79310813e-05 
      -7.37216156e-07       1.42124387e-05      -2.79310791e-05 
       2.39014005e-07       1.42124398e-05      -2.79310824e-05 
       7.35297257e-07       1.42124406e-05      -2.79310846e-05 
      -2.44950531e-07       1.49093193e-05      -2.93019489e-05 
      -7.49441386e-07       1.49093184e-05      -2.93019466e-05 
       2.43002317e-07       1.49093196e-05      -2.93019500e-05 
       7.47493172e-07       1.49093205e-05      -2.93019523e-05 
      -2.44950531e-07       1.49093193e-05      -2.93019489e-05 
      -7.49441386e-07       1.49093184e-05      -2.93019466e-05 
       2.43002317e-07       1.49093196e-05      -2.93019500e-05 
       7.47493172e-07       1.49093205e-05      -2.93019523e-05 
      -2.48843703e-07       1.56174483e-05      -3.06950414e-05 
      -7.61282441e-07       1.56174474e-05      -3.06950390e-05 
       2.46865803e-07       1.56174486e-05      -3.06950425e-05 
       7.59304541e-07       1.56174495e-05      -3.06950449e-05 
      -2.48843703e-07       1.56174483e-05      -3.06950414e-05 
      -7.61282441e-07       1.56174474e-05      -3.06950390e-05 