# vtk DataFile Version 2.0
./output/onsasExample_BladeCantileverBeamNoPitch_windVel3DDynamic 3D/onsasExample_BladeCantileverBeamNoPitch_windVel3DDynamic 3D_0097.vtk
ASCII
DATASET UNSTRUCTURED_GRID

POINTS 800 float
       3.140756e-23      -7.180703e-02      -7.180703e-02 
       5.454285e-23       7.180703e-02      -7.180703e-02 
      -3.140756e-23       7.180703e-02       7.180703e-02 
      -5.454285e-23      -7.180703e-02       7.180703e-02 
       2.000000e-01      -7.180702e-02      -7.180706e-02 
       2.000000e-01       7.180705e-02      -7.180706e-02 
       2.000000e-01       7.180705e-02       7.180701e-02 
       2.000000e-01      -7.180702e-02       7.180701e-02 
       2.000000e-01      -7.180702e-02      -7.180706e-02 
       2.000000e-01       7.180705e-02      -7.180706e-02 
       2.000000e-01       7.180705e-02       7.180701e-02 
       2.000000e-01      -7.180702e-02       7.180701e-02 
       4.000000e-01      -7.180698e-02      -7.180713e-02 
       3.999999e-01       7.180709e-02      -7.180713e-02 
       4.000000e-01       7.180709e-02       7.180693e-02 
       4.000001e-01      -7.180698e-02       7.180693e-02 
       4.000000e-01      -7.180698e-02      -7.180713e-02 
       3.999999e-01       7.180709e-02      -7.180713e-02 
       4.000000e-01       7.180709e-02       7.180693e-02 
       4.000001e-01      -7.180698e-02       7.180693e-02 
       6.000000e-01      -7.180691e-02      -7.180726e-02 
       5.999999e-01       7.180715e-02      -7.180726e-02 
       6.000000e-01       7.180715e-02       7.180681e-02 
       6.000001e-01      -7.180691e-02       7.180681e-02 
       6.000000e-01      -7.180691e-02      -7.180726e-02 
       5.999999e-01       7.180715e-02      -7.180726e-02 
       6.000000e-01       7.180715e-02       7.180681e-02 
       6.000001e-01      -7.180691e-02       7.180681e-02 
       8.000000e-01      -7.180682e-02      -7.180743e-02 
       7.999999e-01       7.180725e-02      -7.180743e-02 
       8.000000e-01       7.180725e-02       7.180664e-02 
       8.000001e-01      -7.180682e-02       7.180664e-02 
       8.000000e-01      -7.180682e-02      -7.180743e-02 
       7.999999e-01       7.180725e-02      -7.180743e-02 
       8.000000e-01       7.180725e-02       7.180664e-02 
       8.000001e-01      -7.180682e-02       7.180664e-02 
       1.000000e+00      -7.180670e-02      -7.180764e-02 
       9.999999e-01       7.180737e-02      -7.180764e-02 
       1.000000e+00       7.180737e-02       7.180642e-02 
       1.000000e+00      -7.180670e-02       7.180642e-02 
       1.000000e+00      -7.180670e-02      -7.180764e-02 
       9.999999e-01       7.180737e-02      -7.180764e-02 
       1.000000e+00       7.180737e-02       7.180642e-02 
       1.000000e+00      -7.180670e-02       7.180642e-02 
       1.200000e+00      -7.180656e-02      -7.180791e-02 
       1.200000e+00       7.180751e-02      -7.180791e-02 
       1.200000e+00       7.180751e-02       7.180616e-02 
       1.200000e+00      -7.180656e-02       7.180616e-02 
       1.200000e+00      -7.180656e-02      -7.180791e-02 
       1.200000e+00       7.180751e-02      -7.180791e-02 
       1.200000e+00       7.180751e-02       7.180616e-02 
       1.200000e+00      -7.180656e-02       7.180616e-02 
       1.400000e+00      -7.180639e-02      -7.180821e-02 
       1.400000e+00       7.180768e-02      -7.180821e-02 
       1.400000e+00       7.180768e-02       7.180585e-02 
       1.400000e+00      -7.180639e-02       7.180585e-02 
       1.400000e+00      -7.180639e-02      -7.180821e-02 
       1.400000e+00       7.180768e-02      -7.180821e-02 
       1.400000e+00       7.180768e-02       7.180585e-02 
       1.400000e+00      -7.180639e-02       7.180585e-02 
       1.600000e+00      -7.180619e-02      -7.180857e-02 
       1.600000e+00       7.180787e-02      -7.180857e-02 
       1.600000e+00       7.180787e-02       7.180550e-02 
       1.600000e+00      -7.180619e-02       7.180550e-02 
       1.600000e+00      -7.180619e-02      -7.180857e-02 
       1.600000e+00       7.180787e-02      -7.180857e-02 
       1.600000e+00       7.180787e-02       7.180550e-02 
       1.600000e+00      -7.180619e-02       7.180550e-02 
       1.800000e+00      -7.180598e-02      -7.180896e-02 
       1.800000e+00       7.180809e-02      -7.180896e-02 
       1.800000e+00       7.180809e-02       7.180511e-02 
       1.800000e+00      -7.180598e-02       7.180511e-02 
       1.800000e+00      -7.180598e-02      -7.180896e-02 
       1.800000e+00       7.180809e-02      -7.180896e-02 
       1.800000e+00       7.180809e-02       7.180511e-02 
       1.800000e+00      -7.180598e-02       7.180511e-02 
       2.000000e+00      -7.180574e-02      -7.180940e-02 
       2.000000e+00       7.180833e-02      -7.180940e-02 
       2.000000e+00       7.180833e-02       7.180467e-02 
       2.000000e+00      -7.180574e-02       7.180467e-02 
       2.000000e+00      -7.180574e-02      -7.180940e-02 
       2.000000e+00       7.180833e-02      -7.180940e-02 
       2.000000e+00       7.180833e-02       7.180467e-02 
       2.000000e+00      -7.180574e-02       7.180467e-02 
       2.200000e+00      -7.180548e-02      -7.180987e-02 
       2.200000e+00       7.180859e-02      -7.180987e-02 
       2.200000e+00       7.180859e-02       7.180419e-02 
       2.200000e+00      -7.180548e-02       7.180419e-02 
       2.200000e+00      -7.180548e-02      -7.180987e-02 
       2.200000e+00       7.180859e-02      -7.180987e-02 
       2.200000e+00       7.180859e-02       7.180419e-02 
       2.200000e+00      -7.180548e-02       7.180419e-02 
       2.400000e+00      -7.180520e-02      -7.181039e-02 
       2.400000e+00       7.180887e-02      -7.181039e-02 
       2.400000e+00       7.180887e-02       7.180368e-02 
       2.400000e+00      -7.180520e-02       7.180368e-02 
       2.400000e+00      -7.180520e-02      -7.181039e-02 
       2.400000e+00       7.180887e-02      -7.181039e-02 
       2.400000e+00       7.180887e-02       7.180368e-02 
       2.400000e+00      -7.180520e-02       7.180368e-02 
       2.600000e+00      -7.180489e-02      -7.181094e-02 
       2.600000e+00       7.180917e-02      -7.181094e-02 
       2.600000e+00       7.180917e-02       7.180312e-02 
       2.600000e+00      -7.180489e-02       7.180312e-02 
       2.600000e+00      -7.180489e-02      -7.181094e-02 
       2.600000e+00       7.180917e-02      -7.181094e-02 
       2.600000e+00       7.180917e-02       7.180312e-02 
       2.600000e+00      -7.180489e-02       7.180312e-02 
       2.800000e+00      -7.180457e-02      -7.181153e-02 
       2.800000e+00       7.180950e-02      -7.181153e-02 
       2.800000e+00       7.180950e-02       7.180253e-02 
       2.800000e+00      -7.180457e-02       7.180253e-02 
       2.800000e+00      -7.180457e-02      -7.181153e-02 
       2.800000e+00       7.180950e-02      -7.181153e-02 
       2.800000e+00       7.180950e-02       7.180253e-02 
       2.800000e+00      -7.180457e-02       7.180253e-02 
       3.000000e+00      -7.180422e-02      -7.181216e-02 
       3.000000e+00       7.180984e-02      -7.181216e-02 
       3.000000e+00       7.180984e-02       7.180190e-02 
       3.000000e+00      -7.180422e-02       7.180190e-02 
       3.000000e+00      -7.180422e-02      -7.181216e-02 
       3.000000e+00       7.180984e-02      -7.181216e-02 
       3.000000e+00       7.180984e-02       7.180190e-02 
       3.000000e+00      -7.180422e-02       7.180190e-02 
       3.200000e+00      -7.180386e-02      -7.181283e-02 
       3.200000e+00       7.181021e-02      -7.181283e-02 
       3.200000e+00       7.181021e-02       7.180124e-02 
       3.200000e+00      -7.180386e-02       7.180124e-02 
       3.200000e+00      -7.180386e-02      -7.181283e-02 
       3.200000e+00       7.181021e-02      -7.181283e-02 
       3.200000e+00       7.181021e-02       7.180124e-02 
       3.200000e+00      -7.180386e-02       7.180124e-02 
       3.400000e+00      -7.180347e-02      -7.181353e-02 
       3.400000e+00       7.181059e-02      -7.181353e-02 
       3.400000e+00       7.181059e-02       7.180054e-02 
       3.400000e+00      -7.180347e-02       7.180054e-02 
       3.400000e+00      -7.180347e-02      -7.181353e-02 
       3.400000e+00       7.181059e-02      -7.181353e-02 
       3.400000e+00       7.181059e-02       7.180054e-02 
       3.400000e+00      -7.180347e-02       7.180054e-02 
       3.600000e+00      -7.180307e-02      -7.181427e-02 
       3.600000e+00       7.181100e-02      -7.181427e-02 
       3.600000e+00       7.181100e-02       7.179980e-02 
       3.600000e+00      -7.180307e-02       7.179980e-02 
       3.600000e+00      -7.180307e-02      -7.181427e-02 
       3.600000e+00       7.181100e-02      -7.181427e-02 
       3.600000e+00       7.181100e-02       7.179980e-02 
       3.600000e+00      -7.180307e-02       7.179980e-02 
       3.800000e+00      -7.180265e-02      -7.181504e-02 
       3.800000e+00       7.181142e-02      -7.181504e-02 
       3.800000e+00       7.181142e-02       7.179903e-02 
       3.800000e+00      -7.180265e-02       7.179903e-02 
       3.800000e+00      -7.180265e-02      -7.181504e-02 
       3.800000e+00       7.181142e-02      -7.181504e-02 
       3.800000e+00       7.181142e-02       7.179903e-02 
       3.800000e+00      -7.180265e-02       7.179903e-02 
       4.000000e+00      -7.180221e-02      -7.181584e-02 
       4.000000e+00       7.181186e-02      -7.181584e-02 
       4.000000e+00       7.181186e-02       7.179823e-02 
       4.000000e+00      -7.180221e-02       7.179823e-02 
       4.000000e+00      -7.180221e-02      -7.181584e-02 
       4.000000e+00       7.181186e-02      -7.181584e-02 
       4.000000e+00       7.181186e-02       7.179823e-02 
       4.000000e+00      -7.180221e-02       7.179823e-02 
       4.200000e+00      -7.180175e-02      -7.181667e-02 
[...]
POINT_DATA       800 
VECTORS Displacements float
       3.14075627e-23      -1.38777878e-17       0.00000000e+00 
       5.45428479e-23       1.38777878e-17       0.00000000e+00 
      -3.14075627e-23       1.38777878e-17       0.00000000e+00 
      -5.45428479e-23      -1.38777878e-17       0.00000000e+00 
      -8.19329699e-09       1.37178365e-08      -2.51111731e-08 
      -2.78308598e-08       1.37178352e-08      -2.51111453e-08 
       8.11346998e-09       1.37178124e-08      -2.51111498e-08 
       2.77510328e-08       1.37178137e-08      -2.51111776e-08 
      -8.19329699e-09       1.37178365e-08      -2.51111731e-08 
      -2.78308598e-08       1.37178352e-08      -2.51111453e-08 
       8.11346998e-09       1.37178124e-08      -2.51111498e-08 
       2.77510328e-08       1.37178137e-08      -2.51111776e-08 
      -1.62196672e-08       5.45194743e-08      -9.97827250e-08 
      -5.51158170e-08       5.45194690e-08      -9.97826647e-08 
       1.60598612e-08       5.45194281e-08      -9.97826824e-08 
       5.49560109e-08       5.45194333e-08      -9.97827426e-08 
      -1.62196672e-08       5.45194743e-08      -9.97827250e-08 
      -5.51158170e-08       5.45194690e-08      -9.97826647e-08 
       1.60598612e-08       5.45194281e-08      -9.97826824e-08 
       5.49560109e-08       5.45194333e-08      -9.97827426e-08 
      -2.40791093e-08       1.21877143e-07      -2.23021743e-07 
      -8.18548697e-08       1.21877132e-07      -2.23021646e-07 
       2.38391753e-08       1.21877077e-07      -2.23021684e-07 
       8.16149357e-08       1.21877089e-07      -2.23021782e-07 
      -2.40791093e-08       1.21877143e-07      -2.23021743e-07 
      -8.18548697e-08       1.21877132e-07      -2.23021646e-07 
       2.38391753e-08       1.21877077e-07      -2.23021684e-07 
       8.16149357e-08       1.21877089e-07      -2.23021782e-07 
      -3.17716216e-08       2.15263073e-07      -3.93835313e-07 
      -1.08048017e-07       2.15263053e-07      -3.93835175e-07 
       3.14514133e-08       2.15262989e-07      -3.93835243e-07 
       1.07727809e-07       2.15263009e-07      -3.93835381e-07 
      -3.17716216e-08       2.15263073e-07      -3.93835313e-07 
      -1.08048017e-07       2.15263053e-07      -3.93835175e-07 
       3.14514133e-08       2.15262989e-07      -3.93835243e-07 
       1.07727809e-07       2.15263009e-07      -3.93835381e-07 
      -3.92972026e-08       3.34149495e-07      -6.11230523e-07 
      -1.33695257e-07       3.34149464e-07      -6.11230340e-07 
       3.88965771e-08       3.34149394e-07      -6.11230444e-07 
       1.33294631e-07       3.34149425e-07      -6.11230627e-07 
      -3.92972026e-08       3.34149495e-07      -6.11230523e-07 
      -1.33695257e-07       3.34149464e-07      -6.11230340e-07 
       3.88965771e-08       3.34149394e-07      -6.11230444e-07 
       1.33294631e-07       3.34149425e-07      -6.11230627e-07 
      -4.66558507e-08       4.78008638e-07      -8.74214460e-07 
      -1.58796588e-07       4.78008594e-07      -8.74214228e-07 
       4.61746685e-08       4.78008522e-07      -8.74214374e-07 
       1.58315405e-07       4.78008566e-07      -8.74214606e-07 
      -4.66558507e-08       4.78008638e-07      -8.74214460e-07 
      -1.58796588e-07       4.78008594e-07      -8.74214228e-07 
       4.61746685e-08       4.78008522e-07      -8.74214374e-07 
       1.58315405e-07       4.78008566e-07      -8.74214606e-07 
      -5.38475649e-08       6.46312732e-07      -1.18179421e-06 
      -1.83352009e-07       6.46312673e-07      -1.18179393e-06 
       5.32856883e-08       6.46312603e-07      -1.18179412e-06 
       1.82790132e-07       6.46312661e-07      -1.18179441e-06 
      -5.38475649e-08       6.46312732e-07      -1.18179421e-06 
      -1.83352009e-07       6.46312673e-07      -1.18179393e-06 
       5.32856883e-08       6.46312603e-07      -1.18179412e-06 
       1.82790132e-07       6.46312661e-07      -1.18179441e-06 
      -6.08723432e-08       8.38534007e-07      -1.53297686e-06 
      -2.07361518e-07       8.38533932e-07      -1.53297652e-06 
       6.02296384e-08       8.38533866e-07      -1.53297677e-06 
       2.06718813e-07       8.38533941e-07      -1.53297711e-06 
      -6.08723432e-08       8.38534007e-07      -1.53297686e-06 
      -2.07361518e-07       8.38533932e-07      -1.53297652e-06 
       6.02296384e-08       8.38533866e-07      -1.53297677e-06 
       2.06718813e-07       8.38533941e-07      -1.53297711e-06 
      -6.77301841e-08       1.05414469e-06      -1.92676950e-06 
      -2.30825114e-07       1.05414460e-06      -1.92676910e-06 
       6.70065206e-08       1.05414454e-06      -1.92676941e-06 
       2.30101450e-07       1.05414463e-06      -1.92676981e-06 
      -6.77301841e-08       1.05414469e-06      -1.92676950e-06 
      -2.30825114e-07       1.05414460e-06      -1.92676910e-06 
       6.70065206e-08       1.05414454e-06      -1.92676941e-06 
       2.30101450e-07       1.05414463e-06      -1.92676981e-06 
      -7.44210860e-08       1.29261702e-06      -2.36217921e-06 
      -2.53742794e-07       1.29261691e-06      -2.36217875e-06 
       7.36163361e-08       1.29261686e-06      -2.36217913e-06 
       2.52938044e-07       1.29261697e-06      -2.36217958e-06 
      -7.44210862e-08       1.29261702e-06      -2.36217921e-06 
      -2.53742794e-07       1.29261691e-06      -2.36217875e-06 
       7.36163361e-08       1.29261686e-06      -2.36217913e-06 
       2.52938044e-07       1.29261697e-06      -2.36217958e-06 
      -8.09394902e-08       1.55343225e-06      -2.83822995e-06 
      -2.76128576e-07       1.55343211e-06      -2.83822945e-06 
       8.00820779e-08       1.55343209e-06      -2.83822989e-06 
       2.75271164e-07       1.55343222e-06      -2.83823040e-06 
      -8.09394902e-08       1.55343225e-06      -2.83822995e-06 
      -2.76128576e-07       1.55343211e-06      -2.83822945e-06 
       8.00820779e-08       1.55343209e-06      -2.83822989e-06 
       2.75271164e-07       1.55343222e-06      -2.83823040e-06 
      -8.73095516e-08       1.83610844e-06      -3.35401685e-06 
      -2.98026684e-07       1.83610828e-06      -3.35401628e-06 
       8.63991452e-08       1.83610828e-06      -3.35401680e-06 
       2.97116277e-07       1.83610844e-06      -3.35401736e-06 
      -8.73095516e-08       1.83610844e-06      -3.35401685e-06 
      -2.98026684e-07       1.83610828e-06      -3.35401628e-06 
       8.63991452e-08       1.83610828e-06      -3.35401680e-06 
       2.97116277e-07       1.83610844e-06      -3.35401736e-06 
      -9.35312681e-08       2.14017303e-06      -3.90865369e-06 
      -3.19437114e-07       2.14017285e-06      -3.90865307e-06 
       9.25675399e-08       2.14017288e-06      -3.90865366e-06 
       3.18473385e-07       2.14017306e-06      -3.90865428e-06 
      -9.35312681e-08       2.14017303e-06      -3.90865369e-06 
      -3.19437114e-07       2.14017285e-06      -3.90865307e-06 
       9.25675399e-08       2.14017288e-06      -3.90865366e-06 
       3.18473385e-07       2.14017306e-06      -3.90865428e-06 
      -9.96046343e-08       2.46515347e-06      -4.50125430e-06 
      -3.40359861e-07       2.46515327e-06      -4.50125362e-06 
       9.85872677e-08       2.46515333e-06      -4.50125429e-06 
       3.39342495e-07       2.46515353e-06      -4.50125497e-06 
      -9.96046343e-08       2.46515347e-06      -4.50125430e-06 
      -3.40359861e-07       2.46515327e-06      -4.50125362e-06 
       9.85872677e-08       2.46515333e-06      -4.50125429e-06 
       3.39342495e-07       2.46515353e-06      -4.50125497e-06 
      -1.05529649e-07       2.81057719e-06      -5.13093247e-06 
      -3.60794924e-07       2.81057697e-06      -5.13093173e-06 
       1.04458330e-07       2.81057706e-06      -5.13093248e-06 
       3.59723606e-07       2.81057728e-06      -5.13093322e-06 
      -1.05529649e-07       2.81057719e-06      -5.13093247e-06 
      -3.60794924e-07       2.81057697e-06      -5.13093173e-06 
       1.04458330e-07       2.81057706e-06      -5.13093248e-06 
       3.59723606e-07       2.81057728e-06      -5.13093322e-06 
      -1.11306306e-07       3.17597164e-06      -5.79680201e-06 
      -3.80742298e-07       3.17597138e-06      -5.79680121e-06 
       1.10180733e-07       3.17597151e-06      -5.79680205e-06 
       3.79616725e-07       3.17597176e-06      -5.79680285e-06 
      -1.11306306e-07       3.17597164e-06      -5.79680201e-06 
      -3.80742298e-07       3.17597138e-06      -5.79680121e-06 
       1.10180733e-07       3.17597151e-06      -5.79680205e-06 
       3.79616725e-07       3.17597176e-06      -5.79680285e-06 
      -1.16934602e-07       3.56086424e-06      -6.49797673e-06 
      -4.00201979e-07       3.56086396e-06      -6.49797587e-06 
       1.15754478e-07       3.56086412e-06      -6.49797680e-06 
       3.99021855e-07       3.56086440e-06      -6.49797766e-06 
      -1.16934602e-07       3.56086424e-06      -6.49797673e-06 
      -4.00201979e-07       3.56086396e-06      -6.49797587e-06 
       1.15754478e-07       3.56086412e-06      -6.49797680e-06 
       3.99021855e-07       3.56086440e-06      -6.49797766e-06 
      -1.22414535e-07       3.96478244e-06      -7.23357044e-06 
      -4.19173963e-07       3.96478213e-06      -7.23356951e-06 
       1.21179572e-07       3.96478233e-06      -7.23357053e-06 
       4.17939000e-07       3.96478264e-06      -7.23357145e-06 
      -1.22414535e-07       3.96478244e-06      -7.23357044e-06 
      -4.19173963e-07       3.96478213e-06      -7.23356951e-06 
       1.21179572e-07       3.96478233e-06      -7.23357053e-06 
       4.17939000e-07       3.96478264e-06      -7.23357145e-06 
      -1.27746099e-07       4.38725368e-06      -8.00269693e-06 
      -4.37658247e-07       4.38725334e-06      -8.00269595e-06 
       1.26456015e-07       4.38725358e-06      -8.00269705e-06 
       4.36368163e-07       4.38725391e-06      -8.00269804e-06 
      -1.27746099e-07       4.38725368e-06      -8.00269693e-06 
      -4.37658247e-07       4.38725334e-06      -8.00269595e-06 
       1.26456015e-07       4.38725358e-06      -8.00269705e-06 
       4.36368163e-07       4.38725391e-06      -8.00269804e-06 
      -1.32929292e-07       4.82780539e-06      -8.80447003e-06 
      -4.55654828e-07       4.82780503e-06      -8.80446897e-06 
       1.31583812e-07       4.82780530e-06      -8.80447018e-06 
       4.54309347e-07       4.82780566e-06      -8.80447123e-06 
      -1.32929293e-07       4.82780539e-06      -8.80447003e-06 
      -4.55654828e-07       4.82780503e-06      -8.80446897e-06 
       1.31583812e-07       4.82780530e-06      -8.80447018e-06 
       4.54309347e-07       4.82780566e-06      -8.80447123e-06 
      -1.37963322e-07       5.28597417e-06      -9.63802113e-06 
      -4.73182717e-07       5.28597378e-06      -9.63802003e-06 
       1.36582281e-07       5.28597410e-06      -9.63802132e-06 
       4.71801676e-07       5.28597449e-06      -9.63802243e-06 
      -1.37963322e-07       5.28597417e-06      -9.63802113e-06 
      -4.73182717e-07       5.28597378e-06      -9.63802003e-06 
       1.36582281e-07       5.28597410e-06      -9.63802132e-06 
       4.71801676e-07       5.28597449e-06      -9.63802243e-06 
      -1.42868146e-07       5.76133371e-06      -1.05025543e-05 
      -4.90282026e-07       5.76133329e-06      -1.05025531e-05 
       1.41451153e-07       5.76133365e-06      -1.05025545e-05 
       4.88865033e-07       5.76133407e-06      -1.05025557e-05 
      -1.42868146e-07       5.76133371e-06      -1.05025543e-05 
      -4.90282026e-07       5.76133329e-06      -1.05025531e-05 
       1.41451153e-07       5.76133365e-06      -1.05025545e-05 
       4.88865033e-07       5.76133407e-06      -1.05025557e-05 
      -1.47643759e-07       6.25346709e-06      -1.13972921e-05 
      -5.06952747e-07       6.25346664e-06      -1.13972909e-05 
       1.46190438e-07       6.25346704e-06      -1.13972923e-05 
       5.05499425e-07       6.25346749e-06      -1.13972936e-05 
      -1.47643759e-07       6.25346709e-06      -1.13972921e-05 
      -5.06952747e-07       6.25346664e-06      -1.13972909e-05 
       1.46190438e-07       6.25346704e-06      -1.13972923e-05 
       5.05499425e-07       6.25346749e-06      -1.13972936e-05 
      -1.52290158e-07       6.76195738e-06      -1.23214573e-05 
      -5.23194879e-07       6.76195690e-06      -1.23214560e-05 
       1.50800135e-07       6.76195736e-06      -1.23214576e-05 
       5.21704856e-07       6.76195784e-06      -1.23214589e-05 
      -1.52290158e-07       6.76195738e-06      -1.23214573e-05 
      -5.23194879e-07       6.76195690e-06      -1.23214560e-05 
       1.50800135e-07       6.76195736e-06      -1.23214576e-05 
       5.21704856e-07       6.76195784e-06      -1.23214589e-05 
      -1.56807337e-07       7.28638769e-06      -1.32742725e-05 
      -5.39008415e-07       7.28638718e-06      -1.32742711e-05 
       1.55280252e-07       7.28638768e-06      -1.32742728e-05 
       5.37481330e-07       7.28638819e-06      -1.32742742e-05 
      -1.56807337e-07       7.28638769e-06      -1.32742725e-05 
      -5.39008415e-07       7.28638718e-06      -1.32742711e-05 
       1.55280252e-07       7.28638768e-06      -1.32742728e-05 
       5.37481330e-07       7.28638819e-06      -1.32742742e-05 
      -1.61195292e-07       7.82634108e-06      -1.42549604e-05 
      -5.54393352e-07       7.82634054e-06      -1.42549590e-05 
       1.59630794e-07       7.82634109e-06      -1.42549608e-05 
       5.52828853e-07       7.82634162e-06      -1.42549622e-05 
      -1.61195292e-07       7.82634108e-06      -1.42549604e-05 
      -5.54393352e-07       7.82634054e-06      -1.42549590e-05 
       1.59630794e-07       7.82634109e-06      -1.42549608e-05 
       5.52828853e-07       7.82634162e-06      -1.42549622e-05 
      -1.65454018e-07       8.38140064e-06      -1.52627437e-05 
      -5.69349682e-07       8.38140007e-06      -1.52627423e-05 
       1.63851765e-07       8.38140067e-06      -1.52627441e-05 
       5.67747430e-07       8.38140123e-06      -1.52627456e-05 
      -1.65454018e-07       8.38140064e-06      -1.52627437e-05 
      -5.69349682e-07       8.38140007e-06      -1.52627423e-05 
       1.63851765e-07       8.38140067e-06      -1.52627441e-05 
       5.67747430e-07       8.38140123e-06      -1.52627456e-05 
      -1.69583508e-07       8.95114946e-06      -1.62968451e-05 
      -5.83877402e-07       8.95114886e-06      -1.62968436e-05 
       1.67943171e-07       8.95114950e-06      -1.62968455e-05 
       5.82237065e-07       8.95115010e-06      -1.62968471e-05 
      -1.69583508e-07       8.95114946e-06      -1.62968451e-05 
      -5.83877402e-07       8.95114886e-06      -1.62968436e-05 
       1.67943171e-07       8.95114950e-06      -1.62968455e-05 
       5.82237065e-07       8.95115010e-06      -1.62968471e-05 
      -1.73583760e-07       9.53517061e-06      -1.73564872e-05 
      -5.97976507e-07       9.53516998e-06      -1.73564856e-05 
       1.71905016e-07       9.53517067e-06      -1.73564877e-05 
       5.96297762e-07       9.53517130e-06      -1.73564893e-05 
      -1.73583760e-07       9.53517061e-06      -1.73564872e-05 
      -5.97976507e-07       9.53516998e-06      -1.73564856e-05 
       1.71905016e-07       9.53517067e-06      -1.73564877e-05 
       5.96297762e-07       9.53517130e-06      -1.73564893e-05 
      -1.77454767e-07       1.01330472e-05      -1.84408927e-05 
      -6.11646993e-07       1.01330465e-05      -1.84408910e-05 
       1.75737304e-07       1.01330473e-05      -1.84408932e-05 
       6.09929528e-07       1.01330479e-05      -1.84408949e-05 
      -1.77454767e-07       1.01330472e-05      -1.84408927e-05 
      -6.11646993e-07       1.01330465e-05      -1.84408910e-05 
       1.75737304e-07       1.01330473e-05      -1.84408932e-05 
       6.09929529e-07       1.01330479e-05      -1.84408949e-05 
      -1.81199369e-07       1.07443715e-05      -1.95493024e-05 
      -6.24911669e-07       1.07443708e-05      -1.95493007e-05 
       1.79456430e-07       1.07443716e-05      -1.95493029e-05 
       6.23168730e-07       1.07443723e-05      -1.95493046e-05 
      -1.81199369e-07       1.07443715e-05      -1.95493024e-05 
      -6.24911669e-07       1.07443708e-05      -1.95493007e-05 
       1.79456430e-07       1.07443716e-05      -1.95493029e-05 
       6.23168730e-07       1.07443723e-05      -1.95493046e-05 
      -1.84834136e-07       1.13687732e-05      -2.06810304e-05 
      -6.37807301e-07       1.13687725e-05      -2.06810286e-05 
       1.83065352e-07       1.13687733e-05      -2.06810310e-05 
       6.36038518e-07       1.13687740e-05      -2.06810327e-05 
      -1.84834136e-07       1.13687732e-05      -2.06810304e-05 
      -6.37807301e-07       1.13687725e-05      -2.06810286e-05 
       1.83065352e-07       1.13687733e-05      -2.06810310e-05 
       6.36038518e-07       1.13687740e-05      -2.06810327e-05 
      -1.88359058e-07       1.20058913e-05      -2.18354093e-05 
      -6.50333884e-07       1.20058905e-05      -2.18354075e-05 
       1.86564075e-07       1.20058914e-05      -2.18354099e-05 
       6.48538901e-07       1.20058921e-05      -2.18354117e-05 
      -1.88359058e-07       1.20058913e-05      -2.18354093e-05 
      -6.50333884e-07       1.20058905e-05      -2.18354075e-05 
       1.86564075e-07       1.20058914e-05      -2.18354099e-05 
       6.48538901e-07       1.20058921e-05      -2.18354117e-05 
      -1.91774136e-07       1.26553648e-05      -2.30117716e-05 
      -6.62491412e-07       1.26553640e-05      -2.30117698e-05 
       1.89952604e-07       1.26553649e-05      -2.30117723e-05 
       6.60669880e-07       1.26553657e-05      -2.30117742e-05 
      -1.91774136e-07       1.26553648e-05      -2.30117716e-05 
      -6.62491412e-07       1.26553640e-05      -2.30117698e-05 
       1.89952604e-07       1.26553649e-05      -2.30117723e-05 
       6.60669880e-07       1.26553657e-05      -2.30117742e-05 
      -1.95079362e-07       1.33168327e-05      -2.42094501e-05 
      -6.74279881e-07       1.33168319e-05      -2.42094482e-05 
       1.93230944e-07       1.33168329e-05      -2.42094508e-05 
       6.72431463e-07       1.33168337e-05      -2.42094527e-05 
      -1.95079362e-07       1.33168327e-05      -2.42094501e-05 
      -6.74279881e-07       1.33168319e-05      -2.42094482e-05 
       1.93230944e-07       1.33168329e-05      -2.42094508e-05 
       6.72431463e-07       1.33168337e-05      -2.42094527e-05 
      -1.98274731e-07       1.39899341e-05      -2.54277772e-05 
      -6.85699285e-07       1.39899332e-05      -2.54277752e-05 
       1.96399101e-07       1.39899343e-05      -2.54277779e-05 
       6.83823655e-07       1.39899351e-05      -2.54277799e-05 
      -1.98274731e-07       1.39899341e-05      -2.54277772e-05 
      -6.85699285e-07       1.39899332e-05      -2.54277752e-05 
       1.96399101e-07       1.39899343e-05      -2.54277779e-05 
       6.83823655e-07       1.39899351e-05      -2.54277799e-05 
      -2.01360237e-07       1.46743079e-05      -2.66660855e-05 
      -6.96749618e-07       1.46743071e-05      -2.66660834e-05 
       1.99457078e-07       1.46743081e-05      -2.66660862e-05 
       6.94846459e-07       1.46743090e-05      -2.66660883e-05 
      -2.01360237e-07       1.46743079e-05      -2.66660855e-05 
      -6.96749618e-07       1.46743071e-05      -2.66660834e-05 
       1.99457078e-07       1.46743081e-05      -2.66660862e-05 
       6.94846459e-07       1.46743090e-05      -2.66660883e-05 
      -2.04335874e-07       1.53695933e-05      -2.79237076e-05 
      -7.07430875e-07       1.53695924e-05      -2.79237055e-05 
       2.02404884e-07       1.53695935e-05      -2.79237084e-05 
       7.05499884e-07       1.53695944e-05      -2.79237105e-05 
      -2.04335874e-07       1.53695933e-05      -2.79237076e-05 
      -7.07430875e-07       1.53695924e-05      -2.79237055e-05 