# vtk DataFile Version 2.0
./output/onsasExample_BladeCantileverBeamNoPitch_windVel3DDynamic 3D/onsasExample_BladeCantileverBeamNoPitch_windVel3DDynamic 3D_0359.vtk
ASCII
DATASET UNSTRUCTURED_GRID

POINTS 800 float
       1.972748e-23      -7.180703e-02      -7.180703e-02 
       1.764932e-23       7.180703e-02      -7.180703e-02 
      -1.972748e-23       7.180703e-02       7.180703e-02 
      -1.764932e-23      -7.180703e-02       7.180703e-02 
       2.000000e-01      -7.180702e-02      -7.180706e-02 
       2.000000e-01       7.180705e-02      -7.180706e-02 
       2.000000e-01       7.180705e-02       7.180701e-02 
       2.000000e-01      -7.180702e-02       7.180701e-02 
       2.000000e-01      -7.180702e-02      -7.180706e-02 
       2.000000e-01       7.180705e-02      -7.180706e-02 
       2.000000e-01       7.180705e-02       7.180701e-02 
       2.000000e-01      -7.180702e-02       7.180701e-02 
       4.000000e-01      -7.180698e-02      -7.180714e-02 
       3.999999e-01       7.180709e-02      -7.180714e-02 
       4.000000e-01       7.180709e-02       7.180692e-02 
       4.000001e-01      -7.180698e-02       7.180692e-02 
       4.000000e-01      -7.180698e-02      -7.180714e-02 
       3.999999e-01       7.180709e-02      -7.180714e-02 
       4.000000e-01       7.180709e-02       7.180692e-02 
       4.000001e-01      -7.180698e-02       7.180692e-02 
       6.000000e-01      -7.180691e-02      -7.180728e-02 
       5.999999e-01       7.180716e-02      -7.180728e-02 
       6.000000e-01       7.180716e-02       7.180678e-02 
       6.000001e-01      -7.180691e-02       7.180678e-02 
       6.000000e-01      -7.180691e-02      -7.180728e-02 
       5.999999e-01       7.180716e-02      -7.180728e-02 
       6.000000e-01       7.180716e-02       7.180678e-02 
       6.000001e-01      -7.180691e-02       7.180678e-02 
       8.000000e-01      -7.180682e-02      -7.180747e-02 
       7.999999e-01       7.180725e-02      -7.180747e-02 
       8.000000e-01       7.180725e-02       7.180659e-02 
       8.000001e-01      -7.180682e-02       7.180659e-02 
       8.000000e-01      -7.180682e-02      -7.180747e-02 
       7.999999e-01       7.180725e-02      -7.180747e-02 
       8.000000e-01       7.180725e-02       7.180659e-02 
       8.000001e-01      -7.180682e-02       7.180659e-02 
       1.000000e+00      -7.180669e-02      -7.180772e-02 
       9.999999e-01       7.180737e-02      -7.180772e-02 
       1.000000e+00       7.180737e-02       7.180635e-02 
       1.000000e+00      -7.180669e-02       7.180635e-02 
       1.000000e+00      -7.180669e-02      -7.180772e-02 
       9.999999e-01       7.180737e-02      -7.180772e-02 
       1.000000e+00       7.180737e-02       7.180635e-02 
       1.000000e+00      -7.180669e-02       7.180635e-02 
       1.200000e+00      -7.180655e-02      -7.180801e-02 
       1.200000e+00       7.180752e-02      -7.180801e-02 
       1.200000e+00       7.180752e-02       7.180605e-02 
       1.200000e+00      -7.180655e-02       7.180605e-02 
       1.200000e+00      -7.180655e-02      -7.180801e-02 
       1.200000e+00       7.180752e-02      -7.180801e-02 
       1.200000e+00       7.180752e-02       7.180605e-02 
       1.200000e+00      -7.180655e-02       7.180605e-02 
       1.400000e+00      -7.180638e-02      -7.180836e-02 
       1.400000e+00       7.180769e-02      -7.180836e-02 
       1.400000e+00       7.180769e-02       7.180571e-02 
       1.400000e+00      -7.180638e-02       7.180571e-02 
       1.400000e+00      -7.180638e-02      -7.180836e-02 
       1.400000e+00       7.180769e-02      -7.180836e-02 
       1.400000e+00       7.180769e-02       7.180571e-02 
       1.400000e+00      -7.180638e-02       7.180571e-02 
       1.600000e+00      -7.180618e-02      -7.180875e-02 
       1.600000e+00       7.180788e-02      -7.180875e-02 
       1.600000e+00       7.180788e-02       7.180532e-02 
       1.600000e+00      -7.180618e-02       7.180532e-02 
       1.600000e+00      -7.180618e-02      -7.180875e-02 
       1.600000e+00       7.180788e-02      -7.180875e-02 
       1.600000e+00       7.180788e-02       7.180532e-02 
       1.600000e+00      -7.180618e-02       7.180532e-02 
       1.800000e+00      -7.180597e-02      -7.180919e-02 
       1.800000e+00       7.180810e-02      -7.180919e-02 
       1.800000e+00       7.180810e-02       7.180487e-02 
       1.800000e+00      -7.180597e-02       7.180487e-02 
       1.800000e+00      -7.180597e-02      -7.180919e-02 
       1.800000e+00       7.180810e-02      -7.180919e-02 
       1.800000e+00       7.180810e-02       7.180487e-02 
       1.800000e+00      -7.180597e-02       7.180487e-02 
       2.000000e+00      -7.180572e-02      -7.180968e-02 
       2.000000e+00       7.180834e-02      -7.180968e-02 
       2.000000e+00       7.180834e-02       7.180439e-02 
       2.000000e+00      -7.180572e-02       7.180439e-02 
       2.000000e+00      -7.180572e-02      -7.180968e-02 
       2.000000e+00       7.180834e-02      -7.180968e-02 
       2.000000e+00       7.180834e-02       7.180439e-02 
       2.000000e+00      -7.180572e-02       7.180439e-02 
       2.200000e+00      -7.180546e-02      -7.181022e-02 
       2.200000e+00       7.180861e-02      -7.181022e-02 
       2.200000e+00       7.180861e-02       7.180385e-02 
       2.200000e+00      -7.180546e-02       7.180385e-02 
       2.200000e+00      -7.180546e-02      -7.181022e-02 
       2.200000e+00       7.180861e-02      -7.181022e-02 
       2.200000e+00       7.180861e-02       7.180385e-02 
       2.200000e+00      -7.180546e-02       7.180385e-02 
       2.400000e+00      -7.180517e-02      -7.181080e-02 
       2.400000e+00       7.180889e-02      -7.181080e-02 
       2.400000e+00       7.180889e-02       7.180327e-02 
       2.400000e+00      -7.180517e-02       7.180327e-02 
       2.400000e+00      -7.180517e-02      -7.181080e-02 
       2.400000e+00       7.180889e-02      -7.181080e-02 
       2.400000e+00       7.180889e-02       7.180327e-02 
       2.400000e+00      -7.180517e-02       7.180327e-02 
       2.600000e+00      -7.180486e-02      -7.181142e-02 
       2.600000e+00       7.180920e-02      -7.181142e-02 
       2.600000e+00       7.180920e-02       7.180265e-02 
       2.600000e+00      -7.180486e-02       7.180265e-02 
       2.600000e+00      -7.180486e-02      -7.181142e-02 
       2.600000e+00       7.180920e-02      -7.181142e-02 
       2.600000e+00       7.180920e-02       7.180265e-02 
       2.600000e+00      -7.180486e-02       7.180265e-02 
       2.800000e+00      -7.180454e-02      -7.181209e-02 
       2.800000e+00       7.180953e-02      -7.181209e-02 
       2.800000e+00       7.180953e-02       7.180198e-02 
       2.800000e+00      -7.180454e-02       7.180198e-02 
       2.800000e+00      -7.180454e-02      -7.181209e-02 
       2.800000e+00       7.180953e-02      -7.181209e-02 
       2.800000e+00       7.180953e-02       7.180198e-02 
       2.800000e+00      -7.180454e-02       7.180198e-02 
       3.000000e+00      -7.180419e-02      -7.181280e-02 
       3.000000e+00       7.180988e-02      -7.181280e-02 
       3.000000e+00       7.180988e-02       7.180127e-02 
       3.000000e+00      -7.180419e-02       7.180127e-02 
       3.000000e+00      -7.180419e-02      -7.181280e-02 
       3.000000e+00       7.180988e-02      -7.181280e-02 
       3.000000e+00       7.180988e-02       7.180127e-02 
       3.000000e+00      -7.180419e-02       7.180127e-02 
       3.200000e+00      -7.180381e-02      -7.181355e-02 
       3.200000e+00       7.181025e-02      -7.181355e-02 
       3.200000e+00       7.181025e-02       7.180052e-02 
       3.200000e+00      -7.180381e-02       7.180052e-02 
       3.200000e+00      -7.180381e-02      -7.181355e-02 
       3.200000e+00       7.181025e-02      -7.181355e-02 
       3.200000e+00       7.181025e-02       7.180052e-02 
       3.200000e+00      -7.180381e-02       7.180052e-02 
       3.400000e+00      -7.180342e-02      -7.181434e-02 
       3.400000e+00       7.181064e-02      -7.181434e-02 
       3.400000e+00       7.181064e-02       7.179973e-02 
       3.400000e+00      -7.180342e-02       7.179973e-02 
       3.400000e+00      -7.180342e-02      -7.181434e-02 
       3.400000e+00       7.181064e-02      -7.181434e-02 
       3.400000e+00       7.181064e-02       7.179973e-02 
       3.400000e+00      -7.180342e-02       7.179973e-02 
       3.600000e+00      -7.180301e-02      -7.181517e-02 
       3.600000e+00       7.181105e-02      -7.181517e-02 
       3.600000e+00       7.181105e-02       7.179890e-02 
       3.600000e+00      -7.180301e-02       7.179890e-02 
       3.600000e+00      -7.180301e-02      -7.181517e-02 
       3.600000e+00       7.181105e-02      -7.181517e-02 
       3.600000e+00       7.181105e-02       7.179890e-02 
       3.600000e+00      -7.180301e-02       7.179890e-02 
       3.800000e+00      -7.180259e-02      -7.181604e-02 
       3.800000e+00       7.181148e-02      -7.181604e-02 
       3.800000e+00       7.181148e-02       7.179803e-02 
       3.800000e+00      -7.180259e-02       7.179803e-02 
       3.800000e+00      -7.180259e-02      -7.181604e-02 
       3.800000e+00       7.181148e-02      -7.181604e-02 
       3.800000e+00       7.181148e-02       7.179803e-02 
       3.800000e+00      -7.180259e-02       7.179803e-02 
       4.000000e+00      -7.180214e-02      -7.181695e-02 
       4.000000e+00       7.181193e-02      -7.181695e-02 
       4.000000e+00       7.181193e-02       7.179712e-02 
       4.000000e+00      -7.180214e-02       7.179712e-02 
       4.000000e+00      -7.180214e-02      -7.181695e-02 
       4.000000e+00       7.181193e-02      -7.181695e-02 
       4.000000e+00       7.181193e-02       7.179712e-02 
       4.000000e+00      -7.180214e-02       7.179712e-02 
       4.200000e+00      -7.180167e-02      -7.181789e-02 
[...]
POINT_DATA       800 
VECTORS Displacements float
       1.97274799e-23       1.38777878e-17       0.00000000e+00 
       1.76493200e-23       0.00000000e+00       0.00000000e+00 
      -1.97274799e-23      -1.38777878e-17       0.00000000e+00 
      -1.76493200e-23       0.00000000e+00       0.00000000e+00 
      -1.01794994e-08       1.38839148e-08      -2.80450383e-08 
      -3.00555363e-08       1.38839134e-08      -2.80450035e-08 
       1.00960985e-08       1.38838842e-08      -2.80450091e-08 
       2.99721354e-08       1.38838856e-08      -2.80450439e-08 
      -1.01794994e-08       1.38839148e-08      -2.80450383e-08 
      -3.00555363e-08       1.38839134e-08      -2.80450035e-08 
       1.00960985e-08       1.38838842e-08      -2.80450091e-08 
       2.99721354e-08       1.38838856e-08      -2.80450439e-08 
      -2.01737848e-08       5.51835962e-08      -1.11484010e-07 
      -5.95466839e-08       5.51835908e-08      -1.11483935e-07 
       2.00068004e-08       5.51835377e-08      -1.11483957e-07 
       5.93796995e-08       5.51835431e-08      -1.11484032e-07 
      -2.01737848e-08       5.51835962e-08      -1.11484010e-07 
      -5.95466839e-08       5.51835908e-08      -1.11483935e-07 
       2.00068004e-08       5.51835377e-08      -1.11483957e-07 
       5.93796995e-08       5.51835431e-08      -1.11484032e-07 
      -2.99828543e-08       1.23370998e-07      -2.49272749e-07 
      -8.84734409e-08       1.23370986e-07      -2.49272629e-07 
       2.97321076e-08       1.23370914e-07      -2.49272677e-07 
       8.82226942e-08       1.23370926e-07      -2.49272797e-07 
      -2.99828543e-08       1.23370998e-07      -2.49272749e-07 
      -8.84734409e-08       1.23370986e-07      -2.49272629e-07 
       2.97321076e-08       1.23370914e-07      -2.49272677e-07 
       8.82226942e-08       1.23370926e-07      -2.49272797e-07 
      -3.96067065e-08       2.17918072e-07      -4.40367087e-07 
      -1.16835806e-07       2.17918051e-07      -4.40366917e-07 
       3.92720212e-08       2.17917965e-07      -4.40367002e-07 
       1.16501121e-07       2.17917986e-07      -4.40367172e-07 
      -3.96067065e-08       2.17918072e-07      -4.40367087e-07 
      -1.16835806e-07       2.17918051e-07      -4.40366917e-07 
       3.92720212e-08       2.17917965e-07      -4.40367002e-07 
       1.16501121e-07       2.17917986e-07      -4.40367172e-07 
      -4.90453395e-08       3.38296774e-07      -6.83722859e-07 
      -1.44633777e-07       3.38296742e-07      -6.83722635e-07 
       4.86265437e-08       3.38296646e-07      -6.83722765e-07 
       1.44214982e-07       3.38296678e-07      -6.83722989e-07 
      -4.90453395e-08       3.38296774e-07      -6.83722859e-07 
      -1.44633777e-07       3.38296742e-07      -6.83722635e-07 
       4.86265437e-08       3.38296646e-07      -6.83722765e-07 
       1.44214982e-07       3.38296678e-07      -6.83722989e-07 
      -5.82987514e-08       4.83979055e-07      -9.78295897e-07 
      -1.71867353e-07       4.83979010e-07      -9.78295614e-07 
       5.77956767e-08       4.83978909e-07      -9.78295798e-07 
       1.71364278e-07       4.83978954e-07      -9.78296081e-07 
      -5.82987514e-08       4.83979055e-07      -9.78295897e-07 
      -1.71867353e-07       4.83979010e-07      -9.78295614e-07 
       5.77956767e-08       4.83978909e-07      -9.78295798e-07 
       1.71364278e-07       4.83978954e-07      -9.78296081e-07 
      -6.73669409e-08       6.54436870e-07      -1.32304203e-06 
      -1.98536531e-07       6.54436810e-07      -1.32304169e-06 
       6.67794213e-08       6.54436707e-07      -1.32304193e-06 
       1.97949012e-07       6.54436767e-07      -1.32304228e-06 
      -6.73669409e-08       6.54436870e-07      -1.32304203e-06 
      -1.98536531e-07       6.54436810e-07      -1.32304169e-06 
       6.67794213e-08       6.54436707e-07      -1.32304193e-06 
       1.97949012e-07       6.54436767e-07      -1.32304228e-06 
      -7.62499055e-08       8.49142172e-07      -1.71691711e-06 
      -2.24641310e-07       8.49142095e-07      -1.71691669e-06 
       7.55777800e-08       8.49141994e-07      -1.71691701e-06 
       2.23969185e-07       8.49142071e-07      -1.71691742e-06 
      -7.62499055e-08       8.49142172e-07      -1.71691711e-06 
      -2.24641310e-07       8.49142095e-07      -1.71691669e-06 
       7.55777800e-08       8.49141994e-07      -1.71691701e-06 
       2.23969185e-07       8.49142071e-07      -1.71691742e-06 
      -8.49476447e-08       1.06756691e-06      -2.15887694e-06 
      -2.50181689e-07       1.06756682e-06      -2.15887646e-06 
       8.41907539e-08       1.06756672e-06      -2.15887685e-06 
       2.49424798e-07       1.06756682e-06      -2.15887733e-06 
      -8.49476447e-08       1.06756691e-06      -2.15887694e-06 
      -2.50181689e-07       1.06756682e-06      -2.15887646e-06 
       8.41907539e-08       1.06756672e-06      -2.15887685e-06 
       2.49424798e-07       1.06756682e-06      -2.15887733e-06 
      -9.34601554e-08       1.30918305e-06      -2.64787738e-06 
      -2.75157664e-07       1.30918293e-06      -2.64787682e-06 
       9.26183450e-08       1.30918285e-06      -2.64787730e-06 
       2.74315854e-07       1.30918296e-06      -2.64787785e-06 
      -9.34601554e-08       1.30918305e-06      -2.64787738e-06 
      -2.75157664e-07       1.30918293e-06      -2.64787682e-06 
       9.26183454e-08       1.30918285e-06      -2.64787730e-06 
       2.74315854e-07       1.30918296e-06      -2.64787785e-06 
      -1.01781007e-07       1.57347156e-06      -3.18289075e-06 
      -2.99582423e-07       1.57347142e-06      -3.18289014e-06 
       1.00883677e-07       1.57347136e-06      -3.18289069e-06 
       2.98685093e-07       1.57347150e-06      -3.18289131e-06 
      -1.01781007e-07       1.57347156e-06      -3.18289075e-06 
      -2.99582423e-07       1.57347142e-06      -3.18289014e-06 
       1.00883677e-07       1.57347136e-06      -3.18289069e-06 
       2.98685093e-07       1.57347150e-06      -3.18289131e-06 
      -1.09934619e-07       1.85995044e-06      -3.76295958e-06 
      -3.23500619e-07       1.85995028e-06      -3.76295890e-06 
       1.08981363e-07       1.85995024e-06      -3.76295955e-06 
       3.22547363e-07       1.85995040e-06      -3.76296023e-06 
      -1.09934619e-07       1.85995044e-06      -3.76295958e-06 
      -3.23500619e-07       1.85995028e-06      -3.76295890e-06 
       1.08981363e-07       1.85995024e-06      -3.76295955e-06 
       3.22547363e-07       1.85995040e-06      -3.76296023e-06 
      -1.17920990e-07       2.16814713e-06      -4.38714494e-06 
      -3.46912248e-07       2.16814695e-06      -4.38714420e-06 
       1.16911409e-07       2.16814695e-06      -4.38714495e-06 
       3.45902667e-07       2.16814713e-06      -4.38714569e-06 
      -1.17920990e-07       2.16814713e-06      -4.38714494e-06 
      -3.46912248e-07       2.16814695e-06      -4.38714420e-06 
       1.16911409e-07       2.16814695e-06      -4.38714495e-06 
       3.45902667e-07       2.16814713e-06      -4.38714569e-06 
      -1.25740114e-07       2.49758910e-06      -5.05450793e-06 
      -3.69817306e-07       2.49758889e-06      -5.05450712e-06 
       1.24673819e-07       2.49758892e-06      -5.05450797e-06 
       3.68751011e-07       2.49758912e-06      -5.05450878e-06 
      -1.25740114e-07       2.49758910e-06      -5.05450793e-06 
      -3.69817306e-07       2.49758889e-06      -5.05450712e-06 
       1.24673819e-07       2.49758892e-06      -5.05450797e-06 
       3.68751011e-07       2.49758912e-06      -5.05450878e-06 
      -1.33391987e-07       2.84780378e-06      -5.76410963e-06 
      -3.92215789e-07       2.84780354e-06      -5.76410874e-06 
       1.32268596e-07       2.84780361e-06      -5.76410970e-06 
       3.91092398e-07       2.84780384e-06      -5.76411059e-06 
      -1.33391987e-07       2.84780378e-06      -5.76410963e-06 
      -3.92215789e-07       2.84780354e-06      -5.76410874e-06 
       1.32268596e-07       2.84780361e-06      -5.76410970e-06 
       3.91092398e-07       2.84780384e-06      -5.76411059e-06 
      -1.40876605e-07       3.21831862e-06      -6.51501112e-06 
      -4.14107693e-07       3.21831836e-06      -6.51501016e-06 
       1.39695745e-07       3.21831846e-06      -6.51501123e-06 
       4.12926832e-07       3.21831872e-06      -6.51501219e-06 
      -1.40876605e-07       3.21831862e-06      -6.51501112e-06 
      -4.14107693e-07       3.21831836e-06      -6.51501016e-06 
       1.39695745e-07       3.21831846e-06      -6.51501123e-06 
       4.12926832e-07       3.21831872e-06      -6.51501219e-06 
      -1.48193964e-07       3.60866109e-06      -7.30627349e-06 
      -4.35493013e-07       3.60866080e-06      -7.30627246e-06 
       1.46955271e-07       3.60866093e-06      -7.30627364e-06 
       4.34254319e-07       3.60866122e-06      -7.30627467e-06 
      -1.48193964e-07       3.60866109e-06      -7.30627349e-06 
      -4.35493013e-07       3.60866080e-06      -7.30627246e-06 
       1.46955271e-07       3.60866093e-06      -7.30627364e-06 
       4.34254319e-07       3.60866122e-06      -7.30627467e-06 
      -1.55344060e-07       4.01835861e-06      -8.13695782e-06 
      -4.56371744e-07       4.01835830e-06      -8.13695671e-06 
       1.54047178e-07       4.01835847e-06      -8.13695801e-06 
       4.55074862e-07       4.01835879e-06      -8.13695912e-06 
      -1.55344060e-07       4.01835861e-06      -8.13695782e-06 
      -4.56371744e-07       4.01835830e-06      -8.13695671e-06 
       1.54047178e-07       4.01835847e-06      -8.13695801e-06 
       4.55074862e-07       4.01835879e-06      -8.13695912e-06 
      -1.62326887e-07       4.44693866e-06      -9.00612520e-06 
      -4.76743884e-07       4.44693831e-06      -9.00612401e-06 
       1.60971469e-07       4.44693853e-06      -9.00612543e-06 
       4.75388466e-07       4.44693887e-06      -9.00612661e-06 
      -1.62326887e-07       4.44693866e-06      -9.00612520e-06 
      -4.76743884e-07       4.44693831e-06      -9.00612401e-06 
       1.60971469e-07       4.44693853e-06      -9.00612543e-06 
       4.75388466e-07       4.44693887e-06      -9.00612661e-06 
      -1.69142443e-07       4.89392867e-06      -9.91283670e-06 
      -4.96609427e-07       4.89392829e-06      -9.91283544e-06 
       1.67728150e-07       4.89392855e-06      -9.91283698e-06 
       4.95195134e-07       4.89392892e-06      -9.91283824e-06 
      -1.69142443e-07       4.89392867e-06      -9.91283670e-06 
      -4.96609427e-07       4.89392829e-06      -9.91283544e-06 
       1.67728150e-07       4.89392855e-06      -9.91283698e-06 
       4.95195135e-07       4.89392892e-06      -9.91283824e-06 
      -1.75789459e-07       5.35886543e-06      -1.08561712e-05 
      -5.15987181e-07       5.35886502e-06      -1.08561699e-05 
       1.74336714e-07       5.35886533e-06      -1.08561716e-05 
       5.14534435e-07       5.35886573e-06      -1.08561729e-05 
      -1.75789459e-07       5.35886543e-06      -1.08561712e-05 
      -5.15987181e-07       5.35886502e-06      -1.08561699e-05 
       1.74336714e-07       5.35886533e-06      -1.08561716e-05 
       5.14534435e-07       5.35886573e-06      -1.08561729e-05 
      -1.82287477e-07       5.84132283e-06      -1.18352786e-05 
      -5.34916573e-07       5.84132240e-06      -1.18352772e-05 
       1.80795791e-07       5.84132275e-06      -1.18352790e-05 
       5.33424888e-07       5.84132319e-06      -1.18352804e-05 
      -1.82287477e-07       5.84132283e-06      -1.18352786e-05 
      -5.34916573e-07       5.84132240e-06      -1.18352772e-05 
       1.80795791e-07       5.84132275e-06      -1.18352790e-05 
       5.33424888e-07       5.84132319e-06      -1.18352804e-05 
      -1.88636485e-07       6.34088399e-06      -1.28493261e-05 
      -5.53397598e-07       6.34088352e-06      -1.28493247e-05 
       1.87105388e-07       6.34088393e-06      -1.28493266e-05 
       5.51866501e-07       6.34088439e-06      -1.28493281e-05 
      -1.88636485e-07       6.34088399e-06      -1.28493261e-05 
      -5.53397598e-07       6.34088352e-06      -1.28493247e-05 
       1.87105388e-07       6.34088393e-06      -1.28493266e-05 
       5.51866501e-07       6.34088439e-06      -1.28493281e-05 
      -1.94836483e-07       6.85713199e-06      -1.38974814e-05 
      -5.71430251e-07       6.85713150e-06      -1.38974798e-05 
       1.93265509e-07       6.85713196e-06      -1.38974819e-05 
       5.69859276e-07       6.85713245e-06      -1.38974834e-05 
      -1.94836483e-07       6.85713199e-06      -1.38974814e-05 
      -5.71430251e-07       6.85713150e-06      -1.38974798e-05 
       1.93265509e-07       6.85713196e-06      -1.38974819e-05 
       5.69859276e-07       6.85713245e-06      -1.38974834e-05 
      -2.00887464e-07       7.38964996e-06      -1.49789117e-05 
      -5.89014524e-07       7.38964944e-06      -1.49789101e-05 
       1.99276160e-07       7.38964995e-06      -1.49789122e-05 
       5.87403221e-07       7.38965047e-06      -1.49789139e-05 
      -2.00887464e-07       7.38964996e-06      -1.49789117e-05 
      -5.89014524e-07       7.38964944e-06      -1.49789101e-05 
       1.99276160e-07       7.38964995e-06      -1.49789122e-05 
       5.87403221e-07       7.38965047e-06      -1.49789139e-05 
      -2.06789420e-07       7.93802099e-06      -1.60927845e-05 
      -6.06150414e-07       7.93802044e-06      -1.60927828e-05 
       2.05137348e-07       7.93802100e-06      -1.60927851e-05 
       6.04498341e-07       7.93802156e-06      -1.60927868e-05 
      -2.06789420e-07       7.93802099e-06      -1.60927845e-05 
      -6.06150414e-07       7.93802044e-06      -1.60927828e-05 
       2.05137348e-07       7.93802100e-06      -1.60927851e-05 
       6.04498341e-07       7.93802156e-06      -1.60927868e-05 
      -2.12542348e-07       8.50182818e-06      -1.72382673e-05 
      -6.22837915e-07       8.50182760e-06      -1.72382655e-05 
       2.10849077e-07       8.50182822e-06      -1.72382679e-05 
       6.21144642e-07       8.50182880e-06      -1.72382697e-05 
      -2.12542348e-07       8.50182818e-06      -1.72382673e-05 
      -6.22837915e-07       8.50182760e-06      -1.72382655e-05 
       2.10849077e-07       8.50182822e-06      -1.72382679e-05 
       6.21144642e-07       8.50182880e-06      -1.72382697e-05 
      -2.18146240e-07       9.08065465e-06      -1.84145274e-05 
      -6.39077017e-07       9.08065403e-06      -1.84145255e-05 
       2.16411356e-07       9.08065470e-06      -1.84145281e-05 
       6.37342132e-07       9.08065532e-06      -1.84145299e-05 
      -2.18146240e-07       9.08065465e-06      -1.84145274e-05 
      -6.39077017e-07       9.08065403e-06      -1.84145255e-05 
       2.16411356e-07       9.08065470e-06      -1.84145281e-05 
       6.37342132e-07       9.08065532e-06      -1.84145299e-05 
      -2.23601092e-07       9.67408348e-06      -1.96207322e-05 
      -6.54867720e-07       9.67408284e-06      -1.96207303e-05 
       2.21824185e-07       9.67408356e-06      -1.96207330e-05 
       6.53090813e-07       9.67408421e-06      -1.96207349e-05 
      -2.23601092e-07       9.67408348e-06      -1.96207322e-05 
      -6.54867720e-07       9.67408284e-06      -1.96207303e-05 
       2.21824185e-07       9.67408356e-06      -1.96207330e-05 
       6.53090813e-07       9.67408421e-06      -1.96207349e-05 
      -2.28906899e-07       1.02816978e-05      -2.08560493e-05 
      -6.70210015e-07       1.02816971e-05      -2.08560474e-05 
       2.27087574e-07       1.02816979e-05      -2.08560502e-05 
       6.68390690e-07       1.02816986e-05      -2.08560521e-05 
      -2.28906899e-07       1.02816978e-05      -2.08560493e-05 
      -6.70210015e-07       1.02816971e-05      -2.08560474e-05 
       2.27087574e-07       1.02816979e-05      -2.08560502e-05 
       6.68390690e-07       1.02816986e-05      -2.08560521e-05 
      -2.34065811e-07       1.09030900e-05      -2.21196639e-05 
      -6.85126119e-07       1.09030893e-05      -2.21196619e-05 
       2.32217603e-07       1.09030902e-05      -2.21196648e-05 
       6.83277912e-07       1.09030909e-05      -2.21196668e-05 
      -2.34065811e-07       1.09030900e-05      -2.21196639e-05 
      -6.85126119e-07       1.09030893e-05      -2.21196619e-05 
       2.32217603e-07       1.09030902e-05      -2.21196648e-05 
       6.83277912e-07       1.09030909e-05      -2.21196668e-05 
      -2.39093803e-07       1.15378896e-05      -2.34108317e-05 
      -6.99651658e-07       1.15378888e-05      -2.34108296e-05 
       2.37216242e-07       1.15378897e-05      -2.34108326e-05 
       6.97774097e-07       1.15378905e-05      -2.34108348e-05 
      -2.39093803e-07       1.15378896e-05      -2.34108317e-05 
      -6.99651658e-07       1.15378888e-05      -2.34108296e-05 
       2.37216242e-07       1.15378897e-05      -2.34108326e-05 
       6.97774097e-07       1.15378905e-05      -2.34108348e-05 
      -2.43990868e-07       1.21857348e-05      -2.47288258e-05 
      -7.13786626e-07       1.21857340e-05      -2.47288237e-05 
       2.42083498e-07       1.21857350e-05      -2.47288268e-05 
       7.11879256e-07       1.21857358e-05      -2.47288290e-05 
      -2.43990868e-07       1.21857348e-05      -2.47288258e-05 
      -7.13786626e-07       1.21857340e-05      -2.47288237e-05 
       2.42083498e-07       1.21857350e-05      -2.47288268e-05 
       7.11879256e-07       1.21857358e-05      -2.47288290e-05 
      -2.48757003e-07       1.28462641e-05      -2.60729194e-05 
      -7.27531019e-07       1.28462633e-05      -2.60729172e-05 
       2.46819375e-07       1.28462643e-05      -2.60729205e-05 
       7.25593391e-07       1.28462651e-05      -2.60729227e-05 
      -2.48757003e-07       1.28462641e-05      -2.60729194e-05 
      -7.27531019e-07       1.28462633e-05      -2.60729172e-05 
       2.46819375e-07       1.28462643e-05      -2.60729205e-05 
       7.25593391e-07       1.28462651e-05      -2.60729227e-05 
      -2.53392199e-07       1.35191160e-05      -2.74423856e-05 
      -7.40884830e-07       1.35191152e-05      -2.74423833e-05 
       2.51423879e-07       1.35191162e-05      -2.74423867e-05 
       7.38916510e-07       1.35191170e-05      -2.74423890e-05 
      -2.53392199e-07       1.35191160e-05      -2.74423856e-05 
      -7.40884830e-07       1.35191152e-05      -2.74423833e-05 
       2.51423879e-07       1.35191162e-05      -2.74423867e-05 
       7.38916510e-07       1.35191170e-05      -2.74423890e-05 
      -2.57896450e-07       1.42039288e-05      -2.88364975e-05 
      -7.53848052e-07       1.42039279e-05      -2.88364951e-05 
       2.55897018e-07       1.42039290e-05      -2.88364986e-05 
       7.51848620e-07       1.42039299e-05      -2.88365010e-05 
      -2.57896450e-07       1.42039288e-05      -2.88364975e-05 
      -7.53848052e-07       1.42039279e-05      -2.88364951e-05 
       2.55897018e-07       1.42039290e-05      -2.88364986e-05 
       7.51848620e-07       1.42039299e-05      -2.88365010e-05 
      -2.62269750e-07       1.49003409e-05      -3.02545281e-05 
      -7.66420678e-07       1.49003400e-05      -3.02545257e-05 
       2.60238799e-07       1.49003412e-05      -3.02545294e-05 
       7.64389727e-07       1.49003421e-05      -3.02545318e-05 
      -2.62269750e-07       1.49003409e-05      -3.02545281e-05 
      -7.66420678e-07       1.49003400e-05      -3.02545257e-05 
       2.60238799e-07       1.49003412e-05      -3.02545294e-05 
       7.64389727e-07       1.49003421e-05      -3.02545318e-05 
      -2.66512092e-07       1.56079908e-05      -3.16957507e-05 
      -7.78602702e-07       1.56079899e-05      -3.16957482e-05 
       2.64449227e-07       1.56079911e-05      -3.16957520e-05 
       7.76539837e-07       1.56079920e-05      -3.16957545e-05 
      -2.66512092e-07       1.56079908e-05      -3.16957507e-05 
      -7.78602702e-07       1.56079899e-05      -3.16957482e-05 