# vtk DataFile Version 2.0
./output/onsasExample_BladeCantileverBeamNoPitch_windVel3DDynamic 3D/onsasExample_BladeCantileverBeamNoPitch_windVel3DDynamic 3D_0023.vtk
ASCII
DATASET UNSTRUCTURED_GRID

POINTS 800 float
      -3.416611e-24      -7.180703e-02      -7.180703e-02 
      -8.383973e-24       7.180703e-02      -7.180703e-02 
       3.416611e-24       7.180703e-02       7.180703e-02 
       8.383973e-24      -7.180703e-02       7.180703e-02 
       2.000000e-01      -7.180702e-02      -7.180706e-02 
       2.000000e-01       7.180705e-02      -7.180706e-02 
       2.000000e-01       7.180705e-02       7.180700e-02 
       2.000000e-01      -7.180702e-02       7.180700e-02 
       2.000000e-01      -7.180702e-02      -7.180706e-02 
       2.000000e-01       7.180705e-02      -7.180706e-02 
       2.000000e-01       7.180705e-02       7.180700e-02 
       2.000000e-01      -7.180702e-02       7.180700e-02 
       4.000000e-01      -7.180698e-02      -7.180715e-02 
       3.999999e-01       7.180709e-02      -7.180715e-02 
       4.000000e-01       7.180709e-02       7.180692e-02 
       4.000001e-01      -7.180698e-02       7.180692e-02 
       4.000000e-01      -7.180698e-02      -7.180715e-02 
       3.999999e-01       7.180709e-02      -7.180715e-02 
       4.000000e-01       7.180709e-02       7.180692e-02 
       4.000001e-01      -7.180698e-02       7.180692e-02 
       6.000000e-01      -7.180691e-02      -7.180729e-02 
       5.999999e-01       7.180716e-02      -7.180729e-02 
       6.000000e-01       7.180716e-02       7.180677e-02 
       6.000001e-01      -7.180691e-02       7.180677e-02 
       6.000000e-01      -7.180691e-02      -7.180729e-02 
       5.999999e-01       7.180716e-02      -7.180729e-02 
       6.000000e-01       7.180716e-02       7.180677e-02 
       6.000001e-01      -7.180691e-02       7.180677e-02 
       8.000000e-01      -7.180682e-02      -7.180749e-02 
       7.999999e-01       7.180725e-02      -7.180749e-02 
       8.000000e-01       7.180725e-02       7.180658e-02 
       8.000001e-01      -7.180682e-02       7.180658e-02 
       8.000000e-01      -7.180682e-02      -7.180749e-02 
       7.999999e-01       7.180725e-02      -7.180749e-02 
       8.000000e-01       7.180725e-02       7.180658e-02 
       8.000001e-01      -7.180682e-02       7.180658e-02 
       9.999999e-01      -7.180670e-02      -7.180774e-02 
       9.999999e-01       7.180737e-02      -7.180774e-02 
       1.000000e+00       7.180737e-02       7.180632e-02 
       1.000000e+00      -7.180670e-02       7.180632e-02 
       9.999999e-01      -7.180670e-02      -7.180774e-02 
       9.999999e-01       7.180737e-02      -7.180774e-02 
       1.000000e+00       7.180737e-02       7.180632e-02 
       1.000000e+00      -7.180670e-02       7.180632e-02 
       1.200000e+00      -7.180655e-02      -7.180805e-02 
       1.200000e+00       7.180752e-02      -7.180805e-02 
       1.200000e+00       7.180752e-02       7.180602e-02 
       1.200000e+00      -7.180655e-02       7.180602e-02 
       1.200000e+00      -7.180655e-02      -7.180805e-02 
       1.200000e+00       7.180752e-02      -7.180805e-02 
       1.200000e+00       7.180752e-02       7.180602e-02 
       1.200000e+00      -7.180655e-02       7.180602e-02 
       1.400000e+00      -7.180638e-02      -7.180841e-02 
       1.400000e+00       7.180769e-02      -7.180841e-02 
       1.400000e+00       7.180769e-02       7.180566e-02 
       1.400000e+00      -7.180638e-02       7.180566e-02 
       1.400000e+00      -7.180638e-02      -7.180841e-02 
       1.400000e+00       7.180769e-02      -7.180841e-02 
       1.400000e+00       7.180769e-02       7.180566e-02 
       1.400000e+00      -7.180638e-02       7.180566e-02 
       1.600000e+00      -7.180618e-02      -7.180882e-02 
       1.600000e+00       7.180788e-02      -7.180882e-02 
       1.600000e+00       7.180788e-02       7.180525e-02 
       1.600000e+00      -7.180618e-02       7.180525e-02 
       1.600000e+00      -7.180618e-02      -7.180882e-02 
       1.600000e+00       7.180788e-02      -7.180882e-02 
       1.600000e+00       7.180788e-02       7.180525e-02 
       1.600000e+00      -7.180618e-02       7.180525e-02 
       1.800000e+00      -7.180597e-02      -7.180927e-02 
       1.800000e+00       7.180810e-02      -7.180927e-02 
       1.800000e+00       7.180810e-02       7.180479e-02 
       1.800000e+00      -7.180597e-02       7.180479e-02 
       1.800000e+00      -7.180597e-02      -7.180927e-02 
       1.800000e+00       7.180810e-02      -7.180927e-02 
       1.800000e+00       7.180810e-02       7.180479e-02 
       1.800000e+00      -7.180597e-02       7.180479e-02 
       2.000000e+00      -7.180572e-02      -7.180978e-02 
       2.000000e+00       7.180834e-02      -7.180978e-02 
       2.000000e+00       7.180834e-02       7.180428e-02 
       2.000000e+00      -7.180572e-02       7.180428e-02 
       2.000000e+00      -7.180572e-02      -7.180978e-02 
       2.000000e+00       7.180834e-02      -7.180978e-02 
       2.000000e+00       7.180834e-02       7.180428e-02 
       2.000000e+00      -7.180572e-02       7.180428e-02 
       2.200000e+00      -7.180546e-02      -7.181034e-02 
       2.200000e+00       7.180861e-02      -7.181034e-02 
       2.200000e+00       7.180861e-02       7.180373e-02 
       2.200000e+00      -7.180546e-02       7.180373e-02 
       2.200000e+00      -7.180546e-02      -7.181034e-02 
       2.200000e+00       7.180861e-02      -7.181034e-02 
       2.200000e+00       7.180861e-02       7.180373e-02 
       2.200000e+00      -7.180546e-02       7.180373e-02 
       2.400000e+00      -7.180517e-02      -7.181094e-02 
       2.400000e+00       7.180889e-02      -7.181094e-02 
       2.400000e+00       7.180889e-02       7.180313e-02 
       2.400000e+00      -7.180517e-02       7.180313e-02 
       2.400000e+00      -7.180517e-02      -7.181094e-02 
       2.400000e+00       7.180889e-02      -7.181094e-02 
       2.400000e+00       7.180889e-02       7.180313e-02 
       2.400000e+00      -7.180517e-02       7.180313e-02 
       2.600000e+00      -7.180487e-02      -7.181159e-02 
       2.600000e+00       7.180920e-02      -7.181159e-02 
       2.600000e+00       7.180920e-02       7.180248e-02 
       2.600000e+00      -7.180487e-02       7.180248e-02 
       2.600000e+00      -7.180487e-02      -7.181159e-02 
       2.600000e+00       7.180920e-02      -7.181159e-02 
       2.600000e+00       7.180920e-02       7.180248e-02 
       2.600000e+00      -7.180487e-02       7.180248e-02 
       2.800000e+00      -7.180454e-02      -7.181228e-02 
       2.800000e+00       7.180953e-02      -7.181228e-02 
       2.800000e+00       7.180953e-02       7.180178e-02 
       2.800000e+00      -7.180454e-02       7.180178e-02 
       2.800000e+00      -7.180454e-02      -7.181228e-02 
       2.800000e+00       7.180953e-02      -7.181228e-02 
       2.800000e+00       7.180953e-02       7.180178e-02 
       2.800000e+00      -7.180454e-02       7.180178e-02 
       3.000000e+00      -7.180419e-02      -7.181302e-02 
       3.000000e+00       7.180988e-02      -7.181302e-02 
       3.000000e+00       7.180988e-02       7.180105e-02 
       3.000000e+00      -7.180419e-02       7.180105e-02 
       3.000000e+00      -7.180419e-02      -7.181302e-02 
       3.000000e+00       7.180988e-02      -7.181302e-02 
       3.000000e+00       7.180988e-02       7.180105e-02 
       3.000000e+00      -7.180419e-02       7.180105e-02 
       3.200000e+00      -7.180382e-02      -7.181380e-02 
       3.200000e+00       7.181025e-02      -7.181380e-02 
       3.200000e+00       7.181025e-02       7.180027e-02 
       3.200000e+00      -7.180382e-02       7.180027e-02 
       3.200000e+00      -7.180382e-02      -7.181380e-02 
       3.200000e+00       7.181025e-02      -7.181380e-02 
       3.200000e+00       7.181025e-02       7.180027e-02 
       3.200000e+00      -7.180382e-02       7.180027e-02 
       3.400000e+00      -7.180343e-02      -7.181462e-02 
       3.400000e+00       7.181064e-02      -7.181462e-02 
       3.400000e+00       7.181064e-02       7.179944e-02 
       3.400000e+00      -7.180343e-02       7.179944e-02 
       3.400000e+00      -7.180343e-02      -7.181462e-02 
       3.400000e+00       7.181064e-02      -7.181462e-02 
       3.400000e+00       7.181064e-02       7.179944e-02 
       3.400000e+00      -7.180343e-02       7.179944e-02 
       3.600000e+00      -7.180302e-02      -7.181549e-02 
       3.600000e+00       7.181105e-02      -7.181549e-02 
       3.600000e+00       7.181105e-02       7.179858e-02 
       3.600000e+00      -7.180302e-02       7.179858e-02 
       3.600000e+00      -7.180302e-02      -7.181549e-02 
       3.600000e+00       7.181105e-02      -7.181549e-02 
       3.600000e+00       7.181105e-02       7.179858e-02 
       3.600000e+00      -7.180302e-02       7.179858e-02 
       3.800000e+00      -7.180259e-02      -7.181639e-02 
       3.800000e+00       7.181148e-02      -7.181639e-02 
       3.800000e+00       7.181148e-02       7.179768e-02 
       3.800000e+00      -7.180259e-02       7.179768e-02 
       3.800000e+00      -7.180259e-02      -7.181639e-02 
       3.800000e+00       7.181148e-02      -7.181639e-02 
       3.800000e+00       7.181148e-02       7.179768e-02 
       3.800000e+00      -7.180259e-02       7.179768e-02 
       4.000000e+00      -7.180214e-02      -7.181733e-02 
       3.999999e+00       7.181192e-02      -7.181733e-02 
       4.000000e+00       7.181192e-02       7.179673e-02 
       4.000001e+00      -7.180214e-02       7.179673e-02 
       4.000000e+00      -7.180214e-02      -7.181733e-02 
       3.999999e+00       7.181192e-02      -7.181733e-02 
       4.000000e+00       7.181192e-02       7.179673e-02 
       4.000001e+00      -7.180214e-02       7.179673e-02 
       4.200000e+00      -7.180168e-02      -7.181831e-02 
[...]
POINT_DATA       800 
VECTORS Displacements float
      -3.41661063e-24      -1.38777878e-17      -1.38777878e-17 
      -8.38397320e-24       1.38777878e-17      -1.38777878e-17 
       3.41661063e-24       1.38777878e-17       1.38777878e-17 
       8.38397320e-24      -1.38777878e-17       1.38777878e-17 
      -1.09342491e-08       1.38751885e-08      -2.90899124e-08 
      -3.07977379e-08       1.38751872e-08      -2.90898746e-08 
       1.08516460e-08       1.38751551e-08      -2.90898806e-08 
       3.07151348e-08       1.38751565e-08      -2.90899184e-08 
      -1.09342491e-08       1.38751885e-08      -2.90899124e-08 
      -3.07977379e-08       1.38751872e-08      -2.90898746e-08 
       1.08516460e-08       1.38751551e-08      -2.90898806e-08 
       3.07151348e-08       1.38751565e-08      -2.90899184e-08 
      -2.16748257e-08       5.51486112e-08      -1.15647710e-07 
      -6.10225460e-08       5.51486058e-08      -1.15647629e-07 
       2.15094256e-08       5.51485474e-08      -1.15647653e-07 
       6.08571459e-08       5.51485527e-08      -1.15647734e-07 
      -2.16748257e-08       5.51486112e-08      -1.15647710e-07 
      -6.10225460e-08       5.51486058e-08      -1.15647629e-07 
       2.15094256e-08       5.51485474e-08      -1.15647653e-07 
       6.08571459e-08       5.51485527e-08      -1.15647734e-07 
      -3.22217280e-08       1.23292106e-07      -2.58605537e-07 
      -9.06744222e-08       1.23292094e-07      -2.58605408e-07 
       3.19733410e-08       1.23292015e-07      -2.58605460e-07 
       9.04260352e-08       1.23292026e-07      -2.58605590e-07 
      -3.22217280e-08       1.23292106e-07      -2.58605537e-07 
      -9.06744222e-08       1.23292094e-07      -2.58605408e-07 
       3.19733410e-08       1.23292015e-07      -2.58605460e-07 
       9.04260352e-08       1.23292026e-07      -2.58605590e-07 
      -4.25749545e-08       2.17777511e-07      -4.56895537e-07 
      -1.19753365e-07       2.17777491e-07      -4.56895354e-07 
       4.22433936e-08       2.17777395e-07      -4.56895445e-07 
       1.19421804e-07       2.17777415e-07      -4.56895628e-07 
      -4.25749545e-08       2.17777511e-07      -4.56895537e-07 
      -1.19753365e-07       2.17777491e-07      -4.56895354e-07 
       4.22433936e-08       2.17777395e-07      -4.56895445e-07 
       1.19421804e-07       2.17777415e-07      -4.56895628e-07 
      -5.27345029e-08       3.38076665e-07      -7.09449853e-07 
      -1.48259372e-07       3.38076633e-07      -7.09449612e-07 
       5.23195856e-08       3.38076526e-07      -7.09449752e-07 
       1.47844455e-07       3.38076557e-07      -7.09449993e-07 
      -5.27345029e-08       3.38076665e-07      -7.09449853e-07 
      -1.48259372e-07       3.38076633e-07      -7.09449612e-07 
       5.23195856e-08       3.38076526e-07      -7.09449752e-07 
       1.47844455e-07       3.38076557e-07      -7.09449993e-07 
      -6.27003713e-08       4.83661405e-07      -1.01520063e-06 
      -1.76192442e-07       4.83661360e-07      -1.01520033e-06 
       6.22019183e-08       4.83661245e-07      -1.01520052e-06 
       1.75693989e-07       4.83661290e-07      -1.01520083e-06 
      -6.27003713e-08       4.83661405e-07      -1.01520063e-06 
      -1.76192442e-07       4.83661360e-07      -1.01520033e-06 
       6.22019183e-08       4.83661245e-07      -1.01520052e-06 
       1.75693989e-07       4.83661290e-07      -1.01520083e-06 
      -7.24725586e-08       6.54003570e-07      -1.37308001e-06 
      -2.03552574e-07       6.54003510e-07      -1.37307964e-06 
       7.18903939e-08       6.54003392e-07      -1.37307990e-06 
       2.02970409e-07       6.54003451e-07      -1.37308027e-06 
      -7.24725586e-08       6.54003570e-07      -1.37308001e-06 
      -2.03552574e-07       6.54003510e-07      -1.37307964e-06 
       7.18903939e-08       6.54003392e-07      -1.37307990e-06 
       2.02970409e-07       6.54003451e-07      -1.37308027e-06 
      -8.20510626e-08       8.48574997e-07      -1.78202013e-06 
      -2.30339764e-07       8.48574920e-07      -1.78201969e-06 
       8.13850141e-08       8.48574802e-07      -1.78202003e-06 
       2.29673716e-07       8.48574879e-07      -1.78202047e-06 
      -8.20510626e-08       8.48574997e-07      -1.78202013e-06 
      -2.30339764e-07       8.48574920e-07      -1.78201969e-06 
       8.13850141e-08       8.48574802e-07      -1.78202003e-06 
       2.29673716e-07       8.48574879e-07      -1.78202047e-06 
      -9.14358815e-08       1.06684752e-06      -2.24095315e-06 
      -2.56554012e-07       1.06684743e-06      -2.24095263e-06 
       9.06857804e-08       1.06684732e-06      -2.24095305e-06 
       2.55803911e-07       1.06684741e-06      -2.24095357e-06 
      -9.14358815e-08       1.06684752e-06      -2.24095315e-06 
      -2.56554012e-07       1.06684743e-06      -2.24095263e-06 
       9.06857804e-08       1.06684732e-06      -2.24095305e-06 
       2.55803911e-07       1.06684741e-06      -2.24095357e-06 
      -1.00627013e-07       1.30829299e-06      -2.74881120e-06 
      -2.82195316e-07       1.30829288e-06      -2.74881061e-06 
       9.97926959e-08       1.30829277e-06      -2.74881112e-06 
       2.81360998e-07       1.30829288e-06      -2.74881171e-06 
      -1.00627013e-07       1.30829299e-06      -2.74881120e-06 
      -2.82195316e-07       1.30829288e-06      -2.74881061e-06 
       9.97926959e-08       1.30829277e-06      -2.74881112e-06 
       2.81360998e-07       1.30829288e-06      -2.74881171e-06 
      -1.09617400e-07       1.57239233e-06      -3.30454273e-06 
      -3.07276256e-07       1.57239219e-06      -3.30454207e-06 
       1.08728754e-07       1.57239211e-06      -3.30454268e-06 
       3.06387610e-07       1.57239224e-06      -3.30454333e-06 
      -1.09617400e-07       1.57239233e-06      -3.30454273e-06 
      -3.07276256e-07       1.57239219e-06      -3.30454207e-06 
       1.08728754e-07       1.57239211e-06      -3.30454268e-06 
       3.06387610e-07       1.57239224e-06      -3.30454333e-06 
      -1.18430977e-07       1.85866308e-06      -3.90716389e-06 
      -3.31840552e-07       1.85866292e-06      -3.90716317e-06 
       1.17487570e-07       1.85866286e-06      -3.90716387e-06 
       3.30897146e-07       1.85866302e-06      -3.90716460e-06 
      -1.18430977e-07       1.85866308e-06      -3.90716389e-06 
      -3.31840552e-07       1.85866292e-06      -3.90716317e-06 
       1.17487570e-07       1.85866286e-06      -3.90716387e-06 
       3.30897146e-07       1.85866302e-06      -3.90716460e-06 
      -1.27067739e-07       2.16663199e-06      -4.55570837e-06 
      -3.55888201e-07       2.16663181e-06      -4.55570757e-06 
       1.26069146e-07       2.16663178e-06      -4.55570838e-06 
       3.54889608e-07       2.16663196e-06      -4.55570918e-06 
      -1.27067739e-07       2.16663199e-06      -4.55570837e-06 
      -3.55888201e-07       2.16663181e-06      -4.55570757e-06 
       1.26069146e-07       2.16663178e-06      -4.55570838e-06 
       3.54889608e-07       2.16663196e-06      -4.55570918e-06 
      -1.35527682e-07       2.49582579e-06      -5.24920983e-06 
      -3.79419196e-07       2.49582559e-06      -5.24920896e-06 
       1.34473488e-07       2.49582559e-06      -5.24920988e-06 
       3.78365002e-07       2.49582580e-06      -5.24921075e-06 
      -1.35527682e-07       2.49582579e-06      -5.24920983e-06 
      -3.79419196e-07       2.49582559e-06      -5.24920896e-06 
       1.34473488e-07       2.49582559e-06      -5.24920988e-06 
       3.78365002e-07       2.49582580e-06      -5.24921075e-06 
      -1.43810801e-07       2.84577124e-06      -5.98670196e-06 
      -4.02433534e-07       2.84577100e-06      -5.98670102e-06 
       1.42700600e-07       2.84577104e-06      -5.98670205e-06 
       4.01323332e-07       2.84577127e-06      -5.98670300e-06 
      -1.43810801e-07       2.84577124e-06      -5.98670196e-06 
      -4.02433534e-07       2.84577100e-06      -5.98670102e-06 
       1.42700600e-07       2.84577104e-06      -5.98670205e-06 
       4.01323332e-07       2.84577127e-06      -5.98670300e-06 
      -1.51917094e-07       3.21599505e-06      -6.76721844e-06 
      -4.24931210e-07       3.21599480e-06      -6.76721742e-06 
       1.50750486e-07       3.21599487e-06      -6.76721857e-06 
       4.23764602e-07       3.21599513e-06      -6.76721959e-06 
      -1.51917094e-07       3.21599505e-06      -6.76721844e-06 
      -4.24931210e-07       3.21599480e-06      -6.76721742e-06 
       1.50750486e-07       3.21599487e-06      -6.76721857e-06 
       4.23764602e-07       3.21599513e-06      -6.76721959e-06 
      -1.59846552e-07       3.60602399e-06      -7.58979293e-06 
      -4.46912220e-07       3.60602370e-06      -7.58979184e-06 
       1.58623151e-07       3.60602382e-06      -7.58979311e-06 
       4.45688818e-07       3.60602410e-06      -7.58979421e-06 
      -1.59846552e-07       3.60602399e-06      -7.58979293e-06 
      -4.46912220e-07       3.60602370e-06      -7.58979184e-06 
       1.58623151e-07       3.60602382e-06      -7.58979311e-06 
       4.45688818e-07       3.60602410e-06      -7.58979421e-06 
      -1.67599175e-07       4.01538479e-06      -8.45345913e-06 
      -4.68376558e-07       4.01538447e-06      -8.45345795e-06 
       1.66318600e-07       4.01538462e-06      -8.45345936e-06 
       4.67095984e-07       4.01538494e-06      -8.45346053e-06 
      -1.67599175e-07       4.01538479e-06      -8.45345913e-06 
      -4.68376558e-07       4.01538447e-06      -8.45345795e-06 
       1.66318600e-07       4.01538462e-06      -8.45345936e-06 
       4.67095984e-07       4.01538494e-06      -8.45346053e-06 
      -1.75174955e-07       4.44360418e-06      -9.35725071e-06 
      -4.89324222e-07       4.44360383e-06      -9.35724945e-06 
       1.73836837e-07       4.44360402e-06      -9.35725098e-06 
       4.87986103e-07       4.44360437e-06      -9.35725224e-06 
      -1.75174955e-07       4.44360418e-06      -9.35725071e-06 
      -4.89324222e-07       4.44360383e-06      -9.35724945e-06 
       1.73836837e-07       4.44360402e-06      -9.35725098e-06 
       4.87986103e-07       4.44360437e-06      -9.35725224e-06 
      -1.82573891e-07       4.89020891e-06      -1.03002013e-05 
      -5.09755206e-07       4.89020853e-06      -1.03002000e-05 
       1.81177866e-07       4.89020877e-06      -1.03002017e-05 
       5.08359181e-07       4.89020914e-06      -1.03002030e-05 
      -1.82573891e-07       4.89020891e-06      -1.03002013e-05 
      -5.09755206e-07       4.89020853e-06      -1.03002000e-05 
       1.81177866e-07       4.89020877e-06      -1.03002017e-05 
       5.08359181e-07       4.89020914e-06      -1.03002030e-05 
      -1.89793609e-07       5.35473484e-06      -1.12813613e-05 
      -5.29686838e-07       5.35473444e-06      -1.12813599e-05 
       1.88360538e-07       5.35473472e-06      -1.12813616e-05 
       5.28253766e-07       5.35473512e-06      -1.12813631e-05 
      -1.89793609e-07       5.35473484e-06      -1.12813613e-05 
      -5.29686838e-07       5.35473444e-06      -1.12813599e-05 
       1.88360538e-07       5.35473472e-06      -1.12813616e-05 
       5.28253766e-07       5.35473512e-06      -1.12813631e-05 
      -1.96853947e-07       5.83675454e-06      -1.22998497e-05 
      -5.49158782e-07       5.83675411e-06      -1.22998482e-05 
       1.95383310e-07       5.83675445e-06      -1.22998502e-05 
       5.47688144e-07       5.83675488e-06      -1.22998517e-05 
      -1.96853947e-07       5.83675454e-06      -1.22998497e-05 
      -5.49158782e-07       5.83675411e-06      -1.22998482e-05 
       1.95383310e-07       5.83675445e-06      -1.22998502e-05 
       5.47688144e-07       5.83675488e-06      -1.22998517e-05 
      -2.03754899e-07       6.33584981e-06      -1.33548039e-05 
      -5.68171031e-07       6.33584934e-06      -1.33548023e-05 
       2.02246190e-07       6.33584973e-06      -1.33548044e-05 
       5.66662322e-07       6.33585019e-06      -1.33548059e-05 
      -2.03754899e-07       6.33584981e-06      -1.33548039e-05 
      -5.68171031e-07       6.33584934e-06      -1.33548023e-05 
       2.02246190e-07       6.33584973e-06      -1.33548044e-05 
       5.66662322e-07       6.33585019e-06      -1.33548059e-05 
      -2.10496458e-07       6.85160241e-06      -1.44453608e-05 
      -5.86723581e-07       6.85160192e-06      -1.44453592e-05 
       2.08949182e-07       6.85160236e-06      -1.44453614e-05 
       5.85176304e-07       6.85160285e-06      -1.44453630e-05 
      -2.10496458e-07       6.85160241e-06      -1.44453608e-05 
      -5.86723581e-07       6.85160192e-06      -1.44453592e-05 
       2.08949182e-07       6.85160236e-06      -1.44453614e-05 
       5.85176304e-07       6.85160285e-06      -1.44453630e-05 
      -2.17078621e-07       7.38359415e-06      -1.55706578e-05 
      -6.04816426e-07       7.38359362e-06      -1.55706561e-05 
       2.15492292e-07       7.38359412e-06      -1.55706584e-05 
       6.03230097e-07       7.38359464e-06      -1.55706601e-05 
      -2.17078621e-07       7.38359415e-06      -1.55706578e-05 
      -6.04816426e-07       7.38359362e-06      -1.55706561e-05 
       2.15492292e-07       7.38359412e-06      -1.55706584e-05 
       6.03230097e-07       7.38359464e-06      -1.55706601e-05 
      -2.23501378e-07       7.93140680e-06      -1.67298318e-05 
      -6.22449559e-07       7.93140624e-06      -1.67298301e-05 
       2.21875527e-07       7.93140679e-06      -1.67298325e-05 
       6.20823707e-07       7.93140735e-06      -1.67298343e-05 
      -2.23501378e-07       7.93140680e-06      -1.67298318e-05 
      -6.22449559e-07       7.93140624e-06      -1.67298301e-05 
       2.21875527e-07       7.93140679e-06      -1.67298325e-05 
       6.20823707e-07       7.93140735e-06      -1.67298343e-05 
      -2.29764725e-07       8.49462214e-06      -1.79220202e-05 
      -6.39622973e-07       8.49462156e-06      -1.79220183e-05 
       2.28098893e-07       8.49462216e-06      -1.79220210e-05 
       6.37957141e-07       8.49462275e-06      -1.79220228e-05 
      -2.29764725e-07       8.49462214e-06      -1.79220202e-05 
      -6.39622973e-07       8.49462156e-06      -1.79220183e-05 
       2.28098893e-07       8.49462216e-06      -1.79220210e-05 
       6.37957141e-07       8.49462275e-06      -1.79220228e-05 
      -2.35868655e-07       9.07282198e-06      -1.91463600e-05 
      -6.56336663e-07       9.07282136e-06      -1.91463580e-05 
       2.34162397e-07       9.07282202e-06      -1.91463608e-05 
       6.54630405e-07       9.07282263e-06      -1.91463627e-05 
      -2.35868655e-07       9.07282198e-06      -1.91463600e-05 
      -6.56336663e-07       9.07282136e-06      -1.91463580e-05 
       2.34162397e-07       9.07282202e-06      -1.91463608e-05 
       6.54630405e-07       9.07282263e-06      -1.91463627e-05 
      -2.41813164e-07       9.66558808e-06      -2.04019883e-05 
      -6.72590624e-07       9.66558743e-06      -2.04019863e-05 
       2.40066043e-07       9.66558814e-06      -2.04019892e-05 
       6.70843503e-07       9.66558879e-06      -2.04019912e-05 
      -2.41813164e-07       9.66558808e-06      -2.04019883e-05 
      -6.72590624e-07       9.66558743e-06      -2.04019863e-05 
       2.40066043e-07       9.66558814e-06      -2.04019892e-05 
       6.70843503e-07       9.66558879e-06      -2.04019912e-05 
      -2.47598244e-07       1.02725022e-05      -2.16880424e-05 
      -6.88384849e-07       1.02725016e-05      -2.16880403e-05 
       2.45809838e-07       1.02725023e-05      -2.16880434e-05 
       6.86596442e-07       1.02725030e-05      -2.16880455e-05 
      -2.47598245e-07       1.02725022e-05      -2.16880424e-05 
      -6.88384850e-07       1.02725016e-05      -2.16880403e-05 
       2.45809837e-07       1.02725023e-05      -2.16880434e-05 
       6.86596442e-07       1.02725030e-05      -2.16880455e-05 
      -2.53225318e-07       1.08931554e-05      -2.30036763e-05 
      -7.03740511e-07       1.08931547e-05      -2.30036741e-05 
       2.51409483e-07       1.08931555e-05      -2.30036773e-05 
       7.01924677e-07       1.08931562e-05      -2.30036795e-05 
      -2.53225318e-07       1.08931554e-05      -2.30036763e-05 
      -7.03740511e-07       1.08931547e-05      -2.30036741e-05 
       2.51409483e-07       1.08931555e-05      -2.30036773e-05 
       7.01924677e-07       1.08931562e-05      -2.30036795e-05 
      -2.58711096e-07       1.15271753e-05      -2.43481143e-05 
      -7.18694188e-07       1.15271745e-05      -2.43481121e-05 
       2.56867330e-07       1.15271754e-05      -2.43481154e-05 
       7.16850422e-07       1.15271761e-05      -2.43481176e-05 
      -2.58711096e-07       1.15271753e-05      -2.43481143e-05 
      -7.18694188e-07       1.15271745e-05      -2.43481121e-05 
       2.56867330e-07       1.15271754e-05      -2.43481154e-05 
       7.16850422e-07       1.15271761e-05      -2.43481176e-05 
      -2.64055570e-07       1.21741988e-05      -2.57205992e-05 
      -7.33245871e-07       1.21741980e-05      -2.57205969e-05 
       2.62183385e-07       1.21741990e-05      -2.57206003e-05 
       7.31373685e-07       1.21741997e-05      -2.57206026e-05 
      -2.64055570e-07       1.21741988e-05      -2.57205992e-05 
      -7.33245871e-07       1.21741980e-05      -2.57205969e-05 
       2.62183385e-07       1.21741990e-05      -2.57206003e-05 
       7.31373685e-07       1.21741997e-05      -2.57206026e-05 
      -2.69258737e-07       1.28338630e-05      -2.71203737e-05 
      -7.47395556e-07       1.28338622e-05      -2.71203713e-05 
       2.67357652e-07       1.28338632e-05      -2.71203749e-05 
       7.45494471e-07       1.28338640e-05      -2.71203773e-05 
      -2.69258737e-07       1.28338630e-05      -2.71203737e-05 
      -7.47395556e-07       1.28338622e-05      -2.71203713e-05 
       2.67357652e-07       1.28338632e-05      -2.71203749e-05 
       7.45494471e-07       1.28338640e-05      -2.71203773e-05 
      -2.74320588e-07       1.35058047e-05      -2.85466804e-05 
      -7.61143236e-07       1.35058039e-05      -2.85466780e-05 
       2.72390140e-07       1.35058050e-05      -2.85466817e-05 
       7.59212787e-07       1.35058058e-05      -2.85466842e-05 
      -2.74320588e-07       1.35058047e-05      -2.85466804e-05 
      -7.61143236e-07       1.35058039e-05      -2.85466780e-05 
       2.72390140e-07       1.35058050e-05      -2.85466817e-05 
       7.59212787e-07       1.35058058e-05      -2.85466842e-05 
      -2.79241116e-07       1.41896611e-05      -2.99987622e-05 
      -7.74488902e-07       1.41896602e-05      -2.99987597e-05 
       2.77280854e-07       1.41896613e-05      -2.99987636e-05 
       7.72528639e-07       1.41896622e-05      -2.99987661e-05 
      -2.79241116e-07       1.41896611e-05      -2.99987622e-05 
      -7.74488902e-07       1.41896602e-05      -2.99987597e-05 
       2.77280854e-07       1.41896613e-05      -2.99987636e-05 
       7.72528639e-07       1.41896622e-05      -2.99987661e-05 
      -2.84020317e-07       1.48850689e-05      -3.14758618e-05 
      -7.87432550e-07       1.48850680e-05      -3.14758592e-05 
       2.82029802e-07       1.48850692e-05      -3.14758632e-05 
       7.85442037e-07       1.48850700e-05      -3.14758658e-05 
      -2.84020317e-07       1.48850689e-05      -3.14758618e-05 
      -7.87432550e-07       1.48850680e-05      -3.14758592e-05 
       2.82029802e-07       1.48850692e-05      -3.14758632e-05 
       7.85442037e-07       1.48850700e-05      -3.14758658e-05 
      -2.88658180e-07       1.55916652e-05      -3.29772217e-05 
      -7.99974172e-07       1.55916643e-05      -3.29772191e-05 
       2.86636992e-07       1.55916655e-05      -3.29772232e-05 
       7.97952984e-07       1.55916664e-05      -3.29772259e-05 
      -2.88658180e-07       1.55916652e-05      -3.29772217e-05 
      -7.99974172e-07       1.55916643e-05      -3.29772191e-05 