# vtk DataFile Version 2.0
./output/onsasExample_BladeCantileverBeamNoPitch_windVel3DDynamic 3D/onsasExample_BladeCantileverBeamNoPitch_windVel3DDynamic 3D_0103.vtk
ASCII
DATASET UNSTRUCTURED_GRID

POINTS 800 float
      -1.776156e-23      -7.180703e-02      -7.180703e-02 
       1.636950e-23       7.180703e-02      -7.180703e-02 
       1.776156e-23       7.180703e-02       7.180703e-02 
      -1.636950e-23      -7.180703e-02       7.180703e-02 
       2.000000e-01      -7.180702e-02      -7.180706e-02 
       2.000000e-01       7.180705e-02      -7.180706e-02 
       2.000000e-01       7.180705e-02       7.180701e-02 
       2.000000e-01      -7.180702e-02       7.180701e-02 
       2.000000e-01      -7.180702e-02      -7.180706e-02 
       2.000000e-01       7.180705e-02      -7.180706e-02 
       2.000000e-01       7.180705e-02       7.180701e-02 
       2.000000e-01      -7.180702e-02       7.180701e-02 
       4.000000e-01      -7.180698e-02      -7.180714e-02 
       3.999999e-01       7.180709e-02      -7.180714e-02 
       4.000000e-01       7.180709e-02       7.180693e-02 
       4.000001e-01      -7.180698e-02       7.180693e-02 
       4.000000e-01      -7.180698e-02      -7.180714e-02 
       3.999999e-01       7.180709e-02      -7.180714e-02 
       4.000000e-01       7.180709e-02       7.180693e-02 
       4.000001e-01      -7.180698e-02       7.180693e-02 
       6.000000e-01      -7.180691e-02      -7.180726e-02 
       5.999999e-01       7.180715e-02      -7.180726e-02 
       6.000000e-01       7.180715e-02       7.180680e-02 
       6.000001e-01      -7.180691e-02       7.180680e-02 
       6.000000e-01      -7.180691e-02      -7.180726e-02 
       5.999999e-01       7.180715e-02      -7.180726e-02 
       6.000000e-01       7.180715e-02       7.180680e-02 
       6.000001e-01      -7.180691e-02       7.180680e-02 
       8.000000e-01      -7.180682e-02      -7.180744e-02 
       7.999999e-01       7.180725e-02      -7.180744e-02 
       8.000000e-01       7.180725e-02       7.180663e-02 
       8.000001e-01      -7.180682e-02       7.180663e-02 
       8.000000e-01      -7.180682e-02      -7.180744e-02 
       7.999999e-01       7.180725e-02      -7.180744e-02 
       8.000000e-01       7.180725e-02       7.180663e-02 
       8.000001e-01      -7.180682e-02       7.180663e-02 
       1.000000e+00      -7.180670e-02      -7.180767e-02 
       9.999999e-01       7.180737e-02      -7.180767e-02 
       1.000000e+00       7.180737e-02       7.180640e-02 
       1.000000e+00      -7.180670e-02       7.180640e-02 
       1.000000e+00      -7.180670e-02      -7.180767e-02 
       9.999999e-01       7.180737e-02      -7.180767e-02 
       1.000000e+00       7.180737e-02       7.180640e-02 
       1.000000e+00      -7.180670e-02       7.180640e-02 
       1.200000e+00      -7.180656e-02      -7.180794e-02 
       1.200000e+00       7.180751e-02      -7.180794e-02 
       1.200000e+00       7.180751e-02       7.180613e-02 
       1.200000e+00      -7.180656e-02       7.180613e-02 
       1.200000e+00      -7.180656e-02      -7.180794e-02 
       1.200000e+00       7.180751e-02      -7.180794e-02 
       1.200000e+00       7.180751e-02       7.180613e-02 
       1.200000e+00      -7.180656e-02       7.180613e-02 
       1.400000e+00      -7.180639e-02      -7.180826e-02 
       1.400000e+00       7.180768e-02      -7.180826e-02 
       1.400000e+00       7.180768e-02       7.180581e-02 
       1.400000e+00      -7.180639e-02       7.180581e-02 
       1.400000e+00      -7.180639e-02      -7.180826e-02 
       1.400000e+00       7.180768e-02      -7.180826e-02 
       1.400000e+00       7.180768e-02       7.180581e-02 
       1.400000e+00      -7.180639e-02       7.180581e-02 
       1.600000e+00      -7.180620e-02      -7.180862e-02 
       1.600000e+00       7.180787e-02      -7.180862e-02 
       1.600000e+00       7.180787e-02       7.180545e-02 
       1.600000e+00      -7.180620e-02       7.180545e-02 
       1.600000e+00      -7.180620e-02      -7.180862e-02 
       1.600000e+00       7.180787e-02      -7.180862e-02 
       1.600000e+00       7.180787e-02       7.180545e-02 
       1.600000e+00      -7.180620e-02       7.180545e-02 
       1.800000e+00      -7.180598e-02      -7.180903e-02 
       1.800000e+00       7.180809e-02      -7.180903e-02 
       1.800000e+00       7.180809e-02       7.180504e-02 
       1.800000e+00      -7.180598e-02       7.180504e-02 
       1.800000e+00      -7.180598e-02      -7.180903e-02 
       1.800000e+00       7.180809e-02      -7.180903e-02 
       1.800000e+00       7.180809e-02       7.180504e-02 
       1.800000e+00      -7.180598e-02       7.180504e-02 
       2.000000e+00      -7.180574e-02      -7.180948e-02 
       2.000000e+00       7.180832e-02      -7.180948e-02 
       2.000000e+00       7.180832e-02       7.180459e-02 
       2.000000e+00      -7.180574e-02       7.180459e-02 
       2.000000e+00      -7.180574e-02      -7.180948e-02 
       2.000000e+00       7.180832e-02      -7.180948e-02 
       2.000000e+00       7.180832e-02       7.180459e-02 
       2.000000e+00      -7.180574e-02       7.180459e-02 
       2.200000e+00      -7.180548e-02      -7.180997e-02 
       2.200000e+00       7.180858e-02      -7.180997e-02 
       2.200000e+00       7.180858e-02       7.180409e-02 
       2.200000e+00      -7.180548e-02       7.180409e-02 
       2.200000e+00      -7.180548e-02      -7.180997e-02 
       2.200000e+00       7.180858e-02      -7.180997e-02 
       2.200000e+00       7.180858e-02       7.180409e-02 
       2.200000e+00      -7.180548e-02       7.180409e-02 
       2.400000e+00      -7.180520e-02      -7.181051e-02 
       2.400000e+00       7.180887e-02      -7.181051e-02 
       2.400000e+00       7.180887e-02       7.180356e-02 
       2.400000e+00      -7.180520e-02       7.180356e-02 
       2.400000e+00      -7.180520e-02      -7.181051e-02 
       2.400000e+00       7.180887e-02      -7.181051e-02 
       2.400000e+00       7.180887e-02       7.180356e-02 
       2.400000e+00      -7.180520e-02       7.180356e-02 
       2.600000e+00      -7.180490e-02      -7.181108e-02 
       2.600000e+00       7.180917e-02      -7.181108e-02 
       2.600000e+00       7.180917e-02       7.180298e-02 
       2.600000e+00      -7.180490e-02       7.180298e-02 
       2.600000e+00      -7.180490e-02      -7.181108e-02 
       2.600000e+00       7.180917e-02      -7.181108e-02 
       2.600000e+00       7.180917e-02       7.180298e-02 
       2.600000e+00      -7.180490e-02       7.180298e-02 
       2.800000e+00      -7.180457e-02      -7.181170e-02 
       2.800000e+00       7.180949e-02      -7.181170e-02 
       2.800000e+00       7.180949e-02       7.180237e-02 
       2.800000e+00      -7.180457e-02       7.180237e-02 
       2.800000e+00      -7.180457e-02      -7.181170e-02 
       2.800000e+00       7.180949e-02      -7.181170e-02 
       2.800000e+00       7.180949e-02       7.180237e-02 
       2.800000e+00      -7.180457e-02       7.180237e-02 
       3.000000e+00      -7.180423e-02      -7.181235e-02 
       3.000000e+00       7.180984e-02      -7.181235e-02 
       3.000000e+00       7.180984e-02       7.180171e-02 
       3.000000e+00      -7.180423e-02       7.180171e-02 
       3.000000e+00      -7.180423e-02      -7.181235e-02 
       3.000000e+00       7.180984e-02      -7.181235e-02 
       3.000000e+00       7.180984e-02       7.180171e-02 
       3.000000e+00      -7.180423e-02       7.180171e-02 
       3.200000e+00      -7.180386e-02      -7.181304e-02 
       3.200000e+00       7.181020e-02      -7.181304e-02 
       3.200000e+00       7.181020e-02       7.180102e-02 
       3.200000e+00      -7.180386e-02       7.180102e-02 
       3.200000e+00      -7.180386e-02      -7.181304e-02 
       3.200000e+00       7.181020e-02      -7.181304e-02 
       3.200000e+00       7.181020e-02       7.180102e-02 
       3.200000e+00      -7.180386e-02       7.180102e-02 
       3.400000e+00      -7.180348e-02      -7.181377e-02 
       3.400000e+00       7.181059e-02      -7.181377e-02 
       3.400000e+00       7.181059e-02       7.180029e-02 
       3.400000e+00      -7.180348e-02       7.180029e-02 
       3.400000e+00      -7.180348e-02      -7.181377e-02 
       3.400000e+00       7.181059e-02      -7.181377e-02 
       3.400000e+00       7.181059e-02       7.180029e-02 
       3.400000e+00      -7.180348e-02       7.180029e-02 
       3.600000e+00      -7.180308e-02      -7.181454e-02 
       3.600000e+00       7.181099e-02      -7.181454e-02 
       3.600000e+00       7.181099e-02       7.179953e-02 
       3.600000e+00      -7.180308e-02       7.179953e-02 
       3.600000e+00      -7.180308e-02      -7.181454e-02 
       3.600000e+00       7.181099e-02      -7.181454e-02 
       3.600000e+00       7.181099e-02       7.179953e-02 
       3.600000e+00      -7.180308e-02       7.179953e-02 
       3.800000e+00      -7.180265e-02      -7.181533e-02 
       3.800000e+00       7.181141e-02      -7.181533e-02 
       3.800000e+00       7.181141e-02       7.179873e-02 
       3.800000e+00      -7.180265e-02       7.179873e-02 
       3.800000e+00      -7.180265e-02      -7.181533e-02 
       3.800000e+00       7.181141e-02      -7.181533e-02 
       3.800000e+00       7.181141e-02       7.179873e-02 
       3.800000e+00      -7.180265e-02       7.179873e-02 
       4.000000e+00      -7.180221e-02      -7.181617e-02 
       4.000000e+00       7.181185e-02      -7.181617e-02 
       4.000000e+00       7.181185e-02       7.179790e-02 
       4.000000e+00      -7.180221e-02       7.179790e-02 
       4.000000e+00      -7.180221e-02      -7.181617e-02 
       4.000000e+00       7.181185e-02      -7.181617e-02 
       4.000000e+00       7.181185e-02       7.179790e-02 
       4.000000e+00      -7.180221e-02       7.179790e-02 
       4.200000e+00      -7.180176e-02      -7.181703e-02 
[...]
POINT_DATA       800 
VECTORS Displacements float
      -1.77615602e-23      -1.38777878e-17      -1.38777878e-17 
       1.63695029e-23       0.00000000e+00       0.00000000e+00 
       1.77615602e-23       1.38777878e-17       1.38777878e-17 
      -1.63695029e-23       0.00000000e+00       0.00000000e+00 
      -8.84218335e-09       1.36933088e-08      -2.59905570e-08 
      -2.84445319e-08       1.36933075e-08      -2.59905270e-08 
       8.76060444e-09       1.36932826e-08      -2.59905318e-08 
       2.83629530e-08       1.36932839e-08      -2.59905618e-08 
      -8.84218335e-09       1.36933088e-08      -2.59905570e-08 
      -2.84445319e-08       1.36933075e-08      -2.59905270e-08 
       8.76060444e-09       1.36932826e-08      -2.59905318e-08 
       2.83629530e-08       1.36932839e-08      -2.59905618e-08 
      -1.75110737e-08       5.44214305e-08      -1.03288499e-07 
      -5.63368693e-08       5.44214253e-08      -1.03288434e-07 
       1.73477555e-08       5.44213802e-08      -1.03288453e-07 
       5.61735510e-08       5.44213855e-08      -1.03288518e-07 
      -1.75110737e-08       5.44214305e-08      -1.03288499e-07 
      -5.63368693e-08       5.44214253e-08      -1.03288434e-07 
       1.73477555e-08       5.44213802e-08      -1.03288453e-07 
       5.61735510e-08       5.44213855e-08      -1.03288518e-07 
      -2.60066696e-08       1.21656699e-07      -2.30883273e-07 
      -8.36770108e-08       1.21656687e-07      -2.30883168e-07 
       2.57614544e-08       1.21656627e-07      -2.30883210e-07 
       8.34317956e-08       1.21656638e-07      -2.30883315e-07 
      -2.60066696e-08       1.21656699e-07      -2.30883273e-07 
      -8.36770108e-08       1.21656687e-07      -2.30883168e-07 
       2.57614544e-08       1.21656627e-07      -2.30883210e-07 
       8.34317956e-08       1.21656638e-07      -2.30883315e-07 
      -3.43289691e-08       2.14871448e-07      -4.07764327e-07 
      -1.10464954e-07       2.14871427e-07      -4.07764178e-07 
       3.40017033e-08       2.14871356e-07      -4.07764251e-07 
       1.10137689e-07       2.14871376e-07      -4.07764399e-07 
      -3.43289691e-08       2.14871448e-07      -4.07764327e-07 
      -1.10464954e-07       2.14871427e-07      -4.07764178e-07 
       3.40017033e-08       2.14871356e-07      -4.07764251e-07 
       1.10137689e-07       2.14871376e-07      -4.07764399e-07 
      -4.24779710e-08       3.33538010e-07      -6.32921107e-07 
      -1.36700699e-07       3.33537980e-07      -6.32920911e-07 
       4.20685036e-08       3.33537901e-07      -6.32921022e-07 
       1.36291231e-07       3.33537932e-07      -6.32921219e-07 
      -4.24779710e-08       3.33538010e-07      -6.32921107e-07 
      -1.36700699e-07       3.33537980e-07      -6.32920911e-07 
       4.20685036e-08       3.33537901e-07      -6.32921022e-07 
       1.36291231e-07       3.33537932e-07      -6.32921219e-07 
      -5.04536739e-08       4.77128721e-07      -9.05343063e-07 
      -1.62384243e-07       4.77128678e-07      -9.05342815e-07 
       4.99618564e-08       4.77128595e-07      -9.05342972e-07 
       1.61892425e-07       4.77128639e-07      -9.05343220e-07 
      -5.04536739e-08       4.77128721e-07      -9.05343063e-07 
      -1.62384243e-07       4.77128678e-07      -9.05342815e-07 
       4.99618564e-08       4.77128595e-07      -9.05342972e-07 
       1.61892425e-07       4.77128639e-07      -9.05343220e-07 
      -5.82560755e-08       6.45115914e-07      -1.22401964e-06 
      -1.87515584e-07       6.45115856e-07      -1.22401934e-06 
       5.76817640e-08       6.45115774e-07      -1.22401955e-06 
       1.86941272e-07       6.45115832e-07      -1.22401985e-06 
      -5.82560755e-08       6.45115914e-07      -1.22401964e-06 
      -1.87515584e-07       6.45115856e-07      -1.22401934e-06 
       5.76817640e-08       6.45115774e-07      -1.22401955e-06 
       1.86941272e-07       6.45115832e-07      -1.22401985e-06 
      -6.58851746e-08       8.36971922e-07      -1.58794029e-06 
      -2.12094721e-07       8.36971848e-07      -1.58793992e-06 
       6.52282275e-08       8.36971769e-07      -1.58794019e-06 
       2.11437774e-07       8.36971843e-07      -1.58794055e-06 
      -6.58851746e-08       8.36971922e-07      -1.58794029e-06 
      -2.12094721e-07       8.36971848e-07      -1.58793992e-06 
       6.52282275e-08       8.36971769e-07      -1.58794019e-06 
       2.11437774e-07       8.36971843e-07      -1.58794055e-06 
      -7.33409702e-08       1.05216908e-06      -1.99609445e-06 
      -2.36121653e-07       1.05216899e-06      -1.99609403e-06 
       7.26012483e-08       1.05216892e-06      -1.99609436e-06 
       2.35381932e-07       1.05216901e-06      -1.99609478e-06 
      -7.33409702e-08       1.05216908e-06      -1.99609445e-06 
      -2.36121653e-07       1.05216899e-06      -1.99609403e-06 
       7.26012483e-08       1.05216892e-06      -1.99609436e-06 
       2.35381932e-07       1.05216901e-06      -1.99609478e-06 
      -8.06234599e-08       1.29017972e-06      -2.44747158e-06 
      -2.59596378e-07       1.29017961e-06      -2.44747109e-06 
       7.98008286e-08       1.29017955e-06      -2.44747149e-06 
       2.58773747e-07       1.29017966e-06      -2.44747198e-06 
      -8.06234597e-08       1.29017972e-06      -2.44747158e-06 
      -2.59596378e-07       1.29017961e-06      -2.44747109e-06 
       7.98008286e-08       1.29017955e-06      -2.44747149e-06 
       2.58773747e-07       1.29017966e-06      -2.44747198e-06 
      -8.77266015e-08       1.55048521e-06      -2.94107761e-06 
      -2.82532453e-07       1.55048508e-06      -2.94107707e-06 
       8.68497105e-08       1.55048504e-06      -2.94107754e-06 
       2.81655562e-07       1.55048517e-06      -2.94107809e-06 
      -8.77266015e-08       1.55048521e-06      -2.94107761e-06 
      -2.82532453e-07       1.55048508e-06      -2.94107707e-06 
       8.68497105e-08       1.55048504e-06      -2.94107754e-06 
       2.81655562e-07       1.55048517e-06      -2.94107809e-06 
      -9.46744900e-08       1.83260380e-06      -3.47598869e-06 
      -3.04974082e-07       1.83260364e-06      -3.47598810e-06 
       9.37429876e-08       1.83260363e-06      -3.47598865e-06 
       3.04042580e-07       1.83260378e-06      -3.47598925e-06 
      -9.46744900e-08       1.83260380e-06      -3.47598869e-06 
      -3.04974082e-07       1.83260364e-06      -3.47598810e-06 
       9.37429876e-08       1.83260363e-06      -3.47598865e-06 
       3.04042580e-07       1.83260378e-06      -3.47598925e-06 
      -1.01467122e-07       2.13606311e-06      -4.05129956e-06 
      -3.26921265e-07       2.13606294e-06      -4.05129890e-06 
       1.00480662e-07       2.13606295e-06      -4.05129954e-06 
       3.25934805e-07       2.13606313e-06      -4.05130019e-06 
      -1.01467122e-07       2.13606311e-06      -4.05129956e-06 
      -3.26921265e-07       2.13606294e-06      -4.05129890e-06 
       1.00480662e-07       2.13606295e-06      -4.05129954e-06 
       3.25934805e-07       2.13606313e-06      -4.05130019e-06 
      -1.08104493e-07       2.46039080e-06      -4.66610492e-06 
      -3.48373995e-07       2.46039059e-06      -4.66610420e-06 
       1.07062738e-07       2.46039064e-06      -4.66610493e-06 
       3.47332241e-07       2.46039084e-06      -4.66610564e-06 
      -1.08104493e-07       2.46039080e-06      -4.66610492e-06 
      -3.48373995e-07       2.46039059e-06      -4.66610420e-06 
       1.07062738e-07       2.46039064e-06      -4.66610493e-06 
       3.47332241e-07       2.46039084e-06      -4.66610564e-06 
      -1.14586600e-07       2.80511448e-06      -5.31949952e-06 
      -3.69332271e-07       2.80511425e-06      -5.31949874e-06 
       1.13489219e-07       2.80511433e-06      -5.31949955e-06 
       3.68234891e-07       2.80511456e-06      -5.31950033e-06 
      -1.14586600e-07       2.80511448e-06      -5.31949952e-06 
      -3.69332271e-07       2.80511425e-06      -5.31949874e-06 
       1.13489219e-07       2.80511433e-06      -5.31949955e-06 
       3.68234891e-07       2.80511456e-06      -5.31950033e-06 
      -1.20913439e-07       3.16976180e-06      -6.01057807e-06 
      -3.89796088e-07       3.16976155e-06      -6.01057722e-06 
       1.19760110e-07       3.16976166e-06      -6.01057813e-06 
       3.88642759e-07       3.16976191e-06      -6.01057897e-06 
      -1.20913439e-07       3.16976180e-06      -6.01057807e-06 
      -3.89796088e-07       3.16976155e-06      -6.01057722e-06 
       1.19760110e-07       3.16976166e-06      -6.01057813e-06 
       3.88642759e-07       3.16976191e-06      -6.01057897e-06 
      -1.27085005e-07       3.55386040e-06      -6.73843531e-06 
      -4.09765440e-07       3.55386012e-06      -6.73843440e-06 
       1.25875415e-07       3.55386026e-06      -6.73843539e-06 
       4.08555850e-07       3.55386054e-06      -6.73843630e-06 
      -1.27085005e-07       3.55386040e-06      -6.73843531e-06 
      -4.09765440e-07       3.55386012e-06      -6.73843440e-06 
       1.25875415e-07       3.55386026e-06      -6.73843539e-06 
       4.08555850e-07       3.55386054e-06      -6.73843630e-06 
      -1.33101295e-07       3.95693790e-06      -7.50216595e-06 
      -4.29240326e-07       3.95693759e-06      -7.50216498e-06 
       1.31835136e-07       3.95693778e-06      -7.50216607e-06 
       4.27974167e-07       3.95693808e-06      -7.50216705e-06 
      -1.33101295e-07       3.95693790e-06      -7.50216595e-06 
      -4.29240326e-07       3.95693759e-06      -7.50216498e-06 
       1.31835136e-07       3.95693778e-06      -7.50216607e-06 
       4.27974167e-07       3.95693808e-06      -7.50216705e-06 
      -1.38962306e-07       4.37852195e-06      -8.30086474e-06 
      -4.48220741e-07       4.37852161e-06      -8.30086369e-06 
       1.37639280e-07       4.37852183e-06      -8.30086489e-06 
       4.46897715e-07       4.37852216e-06      -8.30086593e-06 
      -1.38962306e-07       4.37852195e-06      -8.30086474e-06 
      -4.48220741e-07       4.37852161e-06      -8.30086369e-06 
       1.37639280e-07       4.37852183e-06      -8.30086489e-06 
       4.46897715e-07       4.37852216e-06      -8.30086593e-06 
      -1.44668032e-07       4.81814017e-06      -9.13362639e-06 
      -4.66706682e-07       4.81813981e-06      -9.13362528e-06 
       1.43287846e-07       4.81814007e-06      -9.13362657e-06 
       4.65326496e-07       4.81814043e-06      -9.13362768e-06 
      -1.44668033e-07       4.81814017e-06      -9.13362639e-06 
      -4.66706682e-07       4.81813981e-06      -9.13362528e-06 
       1.43287846e-07       4.81814007e-06      -9.13362657e-06 
       4.65326496e-07       4.81814043e-06      -9.13362768e-06 
      -1.50217268e-07       5.27532938e-06      -9.99956292e-06 
      -4.84716780e-07       5.27532899e-06      -9.99956175e-06 
       1.48799952e-07       5.27532929e-06      -9.99956315e-06 
       4.83299465e-07       5.27532968e-06      -9.99956432e-06 
      -1.50217268e-07       5.27532938e-06      -9.99956292e-06 
      -4.84716780e-07       5.27532899e-06      -9.99956175e-06 
       1.48799952e-07       5.27532929e-06      -9.99956315e-06 
       4.83299465e-07       5.27532968e-06      -9.99956432e-06 
      -1.55629989e-07       5.74966354e-06      -1.08978583e-05 
      -5.02291206e-07       5.74966312e-06      -1.08978570e-05 
       1.54175129e-07       5.74966347e-06      -1.08978585e-05 
       5.00836347e-07       5.74966389e-06      -1.08978598e-05 
      -1.55629989e-07       5.74966354e-06      -1.08978583e-05 
      -5.02291206e-07       5.74966312e-06      -1.08978570e-05 
       1.54175129e-07       5.74966347e-06      -1.08978585e-05 
       5.00836347e-07       5.74966389e-06      -1.08978598e-05 
      -1.60906189e-07       6.24072604e-06      -1.18277150e-05 
      -5.19429952e-07       6.24072560e-06      -1.18277137e-05 
       1.59413382e-07       6.24072599e-06      -1.18277153e-05 
       5.17937146e-07       6.24072644e-06      -1.18277166e-05 
      -1.60906189e-07       6.24072604e-06      -1.18277150e-05 
      -5.19429952e-07       6.24072560e-06      -1.18277137e-05 
       1.59413382e-07       6.24072599e-06      -1.18277153e-05 
       5.17937146e-07       6.24072644e-06      -1.18277166e-05 
      -1.66045865e-07       6.74810027e-06      -1.27883357e-05 
      -5.36133016e-07       6.74809980e-06      -1.27883344e-05 
       1.64514715e-07       6.74810024e-06      -1.27883361e-05 
       5.34601866e-07       6.74810072e-06      -1.27883374e-05 
      -1.66045865e-07       6.74810027e-06      -1.27883357e-05 
      -5.36133016e-07       6.74809980e-06      -1.27883344e-05 
       1.64514715e-07       6.74810024e-06      -1.27883361e-05 
       5.34601866e-07       6.74810072e-06      -1.27883374e-05 
      -1.71049011e-07       7.27136961e-06      -1.37789230e-05 
      -5.52400391e-07       7.27136911e-06      -1.37789216e-05 
       1.69479134e-07       7.27136960e-06      -1.37789234e-05 
       5.50830513e-07       7.27137010e-06      -1.37789248e-05 
      -1.71049011e-07       7.27136961e-06      -1.37789230e-05 
      -5.52400391e-07       7.27136911e-06      -1.37789216e-05 
       1.69479134e-07       7.27136960e-06      -1.37789234e-05 
       5.50830513e-07       7.27137010e-06      -1.37789248e-05 
      -1.75915623e-07       7.81011745e-06      -1.47986794e-05 
      -5.68232073e-07       7.81011691e-06      -1.47986779e-05 
       1.74306643e-07       7.81011745e-06      -1.47986798e-05 
       5.66623092e-07       7.81011799e-06      -1.47986813e-05 
      -1.75915623e-07       7.81011745e-06      -1.47986794e-05 
      -5.68232073e-07       7.81011691e-06      -1.47986779e-05 
       1.74306643e-07       7.81011745e-06      -1.47986798e-05 
       5.66623092e-07       7.81011799e-06      -1.47986813e-05 
      -1.80645695e-07       8.36392717e-06      -1.58468075e-05 
      -5.83628055e-07       8.36392660e-06      -1.58468060e-05 
       1.78997249e-07       8.36392719e-06      -1.58468080e-05 
       5.81979609e-07       8.36392776e-06      -1.58468096e-05 
      -1.80645695e-07       8.36392717e-06      -1.58468075e-05 
      -5.83628055e-07       8.36392660e-06      -1.58468060e-05 
       1.78997249e-07       8.36392719e-06      -1.58468080e-05 
       5.81979609e-07       8.36392776e-06      -1.58468096e-05 
      -1.85239220e-07       8.93238216e-06      -1.69225100e-05 
      -5.98588334e-07       8.93238156e-06      -1.69225083e-05 
       1.83550957e-07       8.93238219e-06      -1.69225105e-05 
       5.96900070e-07       8.93238279e-06      -1.69225121e-05 
      -1.85239220e-07       8.93238216e-06      -1.69225100e-05 
      -5.98588334e-07       8.93238156e-06      -1.69225083e-05 
       1.83550957e-07       8.93238219e-06      -1.69225105e-05 
       5.96900070e-07       8.93238279e-06      -1.69225121e-05 
      -1.89696197e-07       9.51506579e-06      -1.80249893e-05 
      -6.13112904e-07       9.51506517e-06      -1.80249876e-05 
       1.87967769e-07       9.51506585e-06      -1.80249898e-05 
       6.11384476e-07       9.51506648e-06      -1.80249915e-05 
      -1.89696197e-07       9.51506579e-06      -1.80249893e-05 
      -6.13112904e-07       9.51506517e-06      -1.80249876e-05 
       1.87967769e-07       9.51506585e-06      -1.80249898e-05 
       6.11384476e-07       9.51506648e-06      -1.80249915e-05 
      -1.94016618e-07       1.01115615e-05      -1.91534480e-05 
      -6.27201760e-07       1.01115608e-05      -1.91534463e-05 
       1.92247693e-07       1.01115615e-05      -1.91534486e-05 
       6.25432835e-07       1.01115622e-05      -1.91534504e-05 
      -1.94016618e-07       1.01115615e-05      -1.91534480e-05 
      -6.27201760e-07       1.01115608e-05      -1.91534463e-05 
       1.92247693e-07       1.01115615e-05      -1.91534486e-05 
       6.25432835e-07       1.01115622e-05      -1.91534504e-05 
      -1.98202984e-07       1.07214618e-05      -2.03071067e-05 
      -6.40877415e-07       1.07214612e-05      -2.03071049e-05 
       1.96406982e-07       1.07214619e-05      -2.03071074e-05 
       6.39081414e-07       1.07214626e-05      -2.03071092e-05 
      -1.98202984e-07       1.07214618e-05      -2.03071067e-05 
      -6.40877415e-07       1.07214612e-05      -2.03071049e-05 
       1.96406982e-07       1.07214619e-05      -2.03071074e-05 
       6.39081414e-07       1.07214626e-05      -2.03071092e-05 
      -2.02271980e-07       1.13443969e-05      -2.14852587e-05 
      -6.54176786e-07       1.13443962e-05      -2.14852569e-05 
       2.00448507e-07       1.13443970e-05      -2.14852594e-05 
       6.52353312e-07       1.13443977e-05      -2.14852613e-05 
      -2.02271980e-07       1.13443969e-05      -2.14852587e-05 
      -6.54176786e-07       1.13443962e-05      -2.14852569e-05 
       2.00448507e-07       1.13443970e-05      -2.14852594e-05 
       6.52353312e-07       1.13443977e-05      -2.14852613e-05 
      -2.06223597e-07       1.19800061e-05      -2.26872160e-05 
      -6.67099862e-07       1.19800054e-05      -2.26872141e-05 
       2.04372272e-07       1.19800062e-05      -2.26872168e-05 
       6.65248537e-07       1.19800070e-05      -2.26872187e-05 
      -2.06223597e-07       1.19800061e-05      -2.26872160e-05 
      -6.67099862e-07       1.19800054e-05      -2.26872141e-05 
       2.04372272e-07       1.19800062e-05      -2.26872168e-05 
       6.65248537e-07       1.19800070e-05      -2.26872187e-05 
      -2.10057835e-07       1.26279288e-05      -2.39122906e-05 
      -6.79646645e-07       1.26279281e-05      -2.39122886e-05 
       2.08178283e-07       1.26279290e-05      -2.39122914e-05 
       6.77767092e-07       1.26279298e-05      -2.39122933e-05 
      -2.10057835e-07       1.26279288e-05      -2.39122906e-05 
      -6.79646645e-07       1.26279281e-05      -2.39122886e-05 
       2.08178283e-07       1.26279290e-05      -2.39122914e-05 
       6.77767092e-07       1.26279298e-05      -2.39122933e-05 
      -2.13774685e-07       1.32878046e-05      -2.51597944e-05 
      -6.91817124e-07       1.32878038e-05      -2.51597923e-05 
       2.11866546e-07       1.32878048e-05      -2.51597952e-05 
       6.89908984e-07       1.32878056e-05      -2.51597972e-05 
      -2.13774685e-07       1.32878046e-05      -2.51597944e-05 
      -6.91817124e-07       1.32878038e-05      -2.51597923e-05 
       2.11866546e-07       1.32878048e-05      -2.51597952e-05 
       6.89908984e-07       1.32878056e-05      -2.51597972e-05 
      -2.17374143e-07       1.39592727e-05      -2.64290394e-05 
      -7.03611295e-07       1.39592719e-05      -2.64290373e-05 
       2.15437065e-07       1.39592729e-05      -2.64290402e-05 
       7.01674217e-07       1.39592738e-05      -2.64290423e-05 
      -2.17374143e-07       1.39592727e-05      -2.64290394e-05 
      -7.03611295e-07       1.39592719e-05      -2.64290373e-05 
       2.15437065e-07       1.39592729e-05      -2.64290402e-05 
       7.01674217e-07       1.39592738e-05      -2.64290423e-05 
      -2.20856202e-07       1.46419728e-05      -2.77193375e-05 
      -7.15029153e-07       1.46419719e-05      -2.77193354e-05 
       2.18889848e-07       1.46419730e-05      -2.77193384e-05 
       7.13062799e-07       1.46419738e-05      -2.77193406e-05 
      -2.20856202e-07       1.46419728e-05      -2.77193375e-05 
      -7.15029153e-07       1.46419719e-05      -2.77193354e-05 
       2.18889848e-07       1.46419730e-05      -2.77193384e-05 
       7.13062799e-07       1.46419738e-05      -2.77193406e-05 
      -2.24220856e-07       1.53355440e-05      -2.90300009e-05 
      -7.26070692e-07       1.53355432e-05      -2.90299987e-05 
       2.22224900e-07       1.53355443e-05      -2.90300018e-05 
       7.24074734e-07       1.53355452e-05      -2.90300040e-05 
      -2.24220856e-07       1.53355440e-05      -2.90300009e-05 
      -7.26070692e-07       1.53355432e-05      -2.90299987e-05 