# vtk DataFile Version 2.0
./output/onsasExample_BladeCantileverBeamNoPitch_windVel3DDynamic 3D/onsasExample_BladeCantileverBeamNoPitch_windVel3DDynamic 3D_0310.vtk
ASCII
DATASET UNSTRUCTURED_GRID

POINTS 800 float
       1.004944e-23      -7.180703e-02      -7.180703e-02 
       1.920338e-23       7.180703e-02      -7.180703e-02 
      -1.004944e-23       7.180703e-02       7.180703e-02 
      -1.920338e-23      -7.180703e-02       7.180703e-02 
       2.000000e-01      -7.180702e-02      -7.180706e-02 
       2.000000e-01       7.180705e-02      -7.180706e-02 
       2.000000e-01       7.180705e-02       7.180701e-02 
       2.000000e-01      -7.180702e-02       7.180701e-02 
       2.000000e-01      -7.180702e-02      -7.180706e-02 
       2.000000e-01       7.180705e-02      -7.180706e-02 
       2.000000e-01       7.180705e-02       7.180701e-02 
       2.000000e-01      -7.180702e-02       7.180701e-02 
       4.000000e-01      -7.180698e-02      -7.180714e-02 
       3.999999e-01       7.180709e-02      -7.180714e-02 
       4.000000e-01       7.180709e-02       7.180692e-02 
       4.000001e-01      -7.180698e-02       7.180692e-02 
       4.000000e-01      -7.180698e-02      -7.180714e-02 
       3.999999e-01       7.180709e-02      -7.180714e-02 
       4.000000e-01       7.180709e-02       7.180692e-02 
       4.000001e-01      -7.180698e-02       7.180692e-02 
       6.000000e-01      -7.180691e-02      -7.180728e-02 
       5.999999e-01       7.180716e-02      -7.180728e-02 
       6.000000e-01       7.180716e-02       7.180679e-02 
       6.000001e-01      -7.180691e-02       7.180679e-02 
       6.000000e-01      -7.180691e-02      -7.180728e-02 
       5.999999e-01       7.180716e-02      -7.180728e-02 
       6.000000e-01       7.180716e-02       7.180679e-02 
       6.000001e-01      -7.180691e-02       7.180679e-02 
       8.000000e-01      -7.180682e-02      -7.180747e-02 
       7.999999e-01       7.180725e-02      -7.180747e-02 
       8.000000e-01       7.180725e-02       7.180660e-02 
       8.000001e-01      -7.180682e-02       7.180660e-02 
       8.000000e-01      -7.180682e-02      -7.180747e-02 
       7.999999e-01       7.180725e-02      -7.180747e-02 
       8.000000e-01       7.180725e-02       7.180660e-02 
       8.000001e-01      -7.180682e-02       7.180660e-02 
       1.000000e+00      -7.180670e-02      -7.180771e-02 
       9.999999e-01       7.180737e-02      -7.180771e-02 
       1.000000e+00       7.180737e-02       7.180636e-02 
       1.000000e+00      -7.180670e-02       7.180636e-02 
       1.000000e+00      -7.180670e-02      -7.180771e-02 
       9.999999e-01       7.180737e-02      -7.180771e-02 
       1.000000e+00       7.180737e-02       7.180636e-02 
       1.000000e+00      -7.180670e-02       7.180636e-02 
       1.200000e+00      -7.180655e-02      -7.180800e-02 
       1.200000e+00       7.180752e-02      -7.180800e-02 
       1.200000e+00       7.180752e-02       7.180607e-02 
       1.200000e+00      -7.180655e-02       7.180607e-02 
       1.200000e+00      -7.180655e-02      -7.180800e-02 
       1.200000e+00       7.180752e-02      -7.180800e-02 
       1.200000e+00       7.180752e-02       7.180607e-02 
       1.200000e+00      -7.180655e-02       7.180607e-02 
       1.400000e+00      -7.180638e-02      -7.180834e-02 
       1.400000e+00       7.180769e-02      -7.180834e-02 
       1.400000e+00       7.180769e-02       7.180573e-02 
       1.400000e+00      -7.180638e-02       7.180573e-02 
       1.400000e+00      -7.180638e-02      -7.180834e-02 
       1.400000e+00       7.180769e-02      -7.180834e-02 
       1.400000e+00       7.180769e-02       7.180573e-02 
       1.400000e+00      -7.180638e-02       7.180573e-02 
       1.600000e+00      -7.180619e-02      -7.180873e-02 
       1.600000e+00       7.180788e-02      -7.180873e-02 
       1.600000e+00       7.180788e-02       7.180534e-02 
       1.600000e+00      -7.180619e-02       7.180534e-02 
       1.600000e+00      -7.180619e-02      -7.180873e-02 
       1.600000e+00       7.180788e-02      -7.180873e-02 
       1.600000e+00       7.180788e-02       7.180534e-02 
       1.600000e+00      -7.180619e-02       7.180534e-02 
       1.800000e+00      -7.180597e-02      -7.180916e-02 
       1.800000e+00       7.180810e-02      -7.180916e-02 
       1.800000e+00       7.180810e-02       7.180490e-02 
       1.800000e+00      -7.180597e-02       7.180490e-02 
       1.800000e+00      -7.180597e-02      -7.180916e-02 
       1.800000e+00       7.180810e-02      -7.180916e-02 
       1.800000e+00       7.180810e-02       7.180490e-02 
       1.800000e+00      -7.180597e-02       7.180490e-02 
       2.000000e+00      -7.180573e-02      -7.180965e-02 
       2.000000e+00       7.180834e-02      -7.180965e-02 
       2.000000e+00       7.180834e-02       7.180442e-02 
       2.000000e+00      -7.180573e-02       7.180442e-02 
       2.000000e+00      -7.180573e-02      -7.180965e-02 
       2.000000e+00       7.180834e-02      -7.180965e-02 
       2.000000e+00       7.180834e-02       7.180442e-02 
       2.000000e+00      -7.180573e-02       7.180442e-02 
       2.200000e+00      -7.180546e-02      -7.181018e-02 
       2.200000e+00       7.180860e-02      -7.181018e-02 
       2.200000e+00       7.180860e-02       7.180389e-02 
       2.200000e+00      -7.180546e-02       7.180389e-02 
       2.200000e+00      -7.180546e-02      -7.181018e-02 
       2.200000e+00       7.180860e-02      -7.181018e-02 
       2.200000e+00       7.180860e-02       7.180389e-02 
       2.200000e+00      -7.180546e-02       7.180389e-02 
       2.400000e+00      -7.180518e-02      -7.181075e-02 
       2.400000e+00       7.180889e-02      -7.181075e-02 
       2.400000e+00       7.180889e-02       7.180332e-02 
       2.400000e+00      -7.180518e-02       7.180332e-02 
       2.400000e+00      -7.180518e-02      -7.181075e-02 
       2.400000e+00       7.180889e-02      -7.181075e-02 
       2.400000e+00       7.180889e-02       7.180332e-02 
       2.400000e+00      -7.180518e-02       7.180332e-02 
       2.600000e+00      -7.180487e-02      -7.181136e-02 
       2.600000e+00       7.180920e-02      -7.181136e-02 
       2.600000e+00       7.180920e-02       7.180270e-02 
       2.600000e+00      -7.180487e-02       7.180270e-02 
       2.600000e+00      -7.180487e-02      -7.181136e-02 
       2.600000e+00       7.180920e-02      -7.181136e-02 
       2.600000e+00       7.180920e-02       7.180270e-02 
       2.600000e+00      -7.180487e-02       7.180270e-02 
       2.800000e+00      -7.180454e-02      -7.181202e-02 
       2.800000e+00       7.180953e-02      -7.181202e-02 
       2.800000e+00       7.180953e-02       7.180204e-02 
       2.800000e+00      -7.180454e-02       7.180204e-02 
       2.800000e+00      -7.180454e-02      -7.181202e-02 
       2.800000e+00       7.180953e-02      -7.181202e-02 
       2.800000e+00       7.180953e-02       7.180204e-02 
       2.800000e+00      -7.180454e-02       7.180204e-02 
       3.000000e+00      -7.180419e-02      -7.181272e-02 
       3.000000e+00       7.180988e-02      -7.181272e-02 
       3.000000e+00       7.180988e-02       7.180134e-02 
       3.000000e+00      -7.180419e-02       7.180134e-02 
       3.000000e+00      -7.180419e-02      -7.181272e-02 
       3.000000e+00       7.180988e-02      -7.181272e-02 
       3.000000e+00       7.180988e-02       7.180134e-02 
       3.000000e+00      -7.180419e-02       7.180134e-02 
       3.200000e+00      -7.180382e-02      -7.181346e-02 
       3.200000e+00       7.181025e-02      -7.181346e-02 
       3.200000e+00       7.181025e-02       7.180060e-02 
       3.200000e+00      -7.180382e-02       7.180060e-02 
       3.200000e+00      -7.180382e-02      -7.181346e-02 
       3.200000e+00       7.181025e-02      -7.181346e-02 
       3.200000e+00       7.181025e-02       7.180060e-02 
       3.200000e+00      -7.180382e-02       7.180060e-02 
       3.400000e+00      -7.180343e-02      -7.181424e-02 
       3.400000e+00       7.181064e-02      -7.181424e-02 
       3.400000e+00       7.181064e-02       7.179982e-02 
       3.400000e+00      -7.180343e-02       7.179982e-02 
       3.400000e+00      -7.180343e-02      -7.181424e-02 
       3.400000e+00       7.181064e-02      -7.181424e-02 
       3.400000e+00       7.181064e-02       7.179982e-02 
       3.400000e+00      -7.180343e-02       7.179982e-02 
       3.600000e+00      -7.180302e-02      -7.181506e-02 
       3.600000e+00       7.181104e-02      -7.181506e-02 
       3.600000e+00       7.181104e-02       7.179900e-02 
       3.600000e+00      -7.180302e-02       7.179900e-02 
       3.600000e+00      -7.180302e-02      -7.181506e-02 
       3.600000e+00       7.181104e-02      -7.181506e-02 
       3.600000e+00       7.181104e-02       7.179900e-02 
       3.600000e+00      -7.180302e-02       7.179900e-02 
       3.800000e+00      -7.180259e-02      -7.181592e-02 
       3.800000e+00       7.181147e-02      -7.181592e-02 
       3.800000e+00       7.181147e-02       7.179815e-02 
       3.800000e+00      -7.180259e-02       7.179815e-02 
       3.800000e+00      -7.180259e-02      -7.181592e-02 
       3.800000e+00       7.181147e-02      -7.181592e-02 
       3.800000e+00       7.181147e-02       7.179815e-02 
       3.800000e+00      -7.180259e-02       7.179815e-02 
       4.000000e+00      -7.180215e-02      -7.181681e-02 
       4.000000e+00       7.181192e-02      -7.181681e-02 
       4.000000e+00       7.181192e-02       7.179725e-02 
       4.000000e+00      -7.180215e-02       7.179725e-02 
       4.000000e+00      -7.180215e-02      -7.181681e-02 
       4.000000e+00       7.181192e-02      -7.181681e-02 
       4.000000e+00       7.181192e-02       7.179725e-02 
       4.000000e+00      -7.180215e-02       7.179725e-02 
       4.200000e+00      -7.180168e-02      -7.181774e-02 
[...]
POINT_DATA       800 
VECTORS Displacements float
       1.00494385e-23       1.38777878e-17       1.38777878e-17 
       1.92033799e-23       0.00000000e+00       0.00000000e+00 
      -1.00494385e-23      -1.38777878e-17      -1.38777878e-17 
      -1.92033799e-23       0.00000000e+00       0.00000000e+00 
      -9.94778687e-09       1.38600309e-08      -2.77019110e-08 
      -2.97895600e-08       1.38600295e-08      -2.77018749e-08 
       9.86970369e-09       1.38599989e-08      -2.77018804e-08 
       2.97114768e-08       1.38600003e-08      -2.77019165e-08 
      -9.94778687e-09       1.38600309e-08      -2.77019110e-08 
      -2.97895600e-08       1.38600295e-08      -2.77018749e-08 
       9.86970369e-09       1.38599989e-08      -2.77018804e-08 
       2.97114768e-08       1.38600003e-08      -2.77019165e-08 
      -1.97114712e-08       5.50882700e-08      -1.10113778e-07 
      -5.90160697e-08       5.50882646e-08      -1.10113700e-07 
       1.95551261e-08       5.50882087e-08      -1.10113722e-07 
       5.88597246e-08       5.50882140e-08      -1.10113799e-07 
      -1.97114712e-08       5.50882700e-08      -1.10113778e-07 
      -5.90160697e-08       5.50882646e-08      -1.10113700e-07 
       1.95551261e-08       5.50882087e-08      -1.10113722e-07 
       5.88597246e-08       5.50882140e-08      -1.10113799e-07 
      -2.92910514e-08       1.23156987e-07      -2.46194851e-07 
      -8.76795276e-08       1.23156975e-07      -2.46194727e-07 
       2.90562689e-08       1.23156899e-07      -2.46194774e-07 
       8.74447452e-08       1.23156910e-07      -2.46194898e-07 
      -2.92910514e-08       1.23156987e-07      -2.46194851e-07 
      -8.76795276e-08       1.23156975e-07      -2.46194727e-07 
       2.90562689e-08       1.23156899e-07      -2.46194774e-07 
       8.74447452e-08       1.23156910e-07      -2.46194898e-07 
      -3.86865258e-08       2.17538451e-07      -4.34904381e-07 
      -1.15779932e-07       2.17538430e-07      -4.34904206e-07 
       3.83731339e-08       2.17538338e-07      -4.34904289e-07 
       1.15466540e-07       2.17538359e-07      -4.34904463e-07 
      -3.86865258e-08       2.17538451e-07      -4.34904381e-07 
      -1.15779932e-07       2.17538430e-07      -4.34904206e-07 
       3.83731339e-08       2.17538338e-07      -4.34904289e-07 
       1.15466540e-07       2.17538359e-07      -4.34904463e-07 
      -4.78978923e-08       3.37704931e-07      -6.75201618e-07 
      -1.43317281e-07       3.37704900e-07      -6.75201388e-07 
       4.75057229e-08       3.37704796e-07      -6.75201514e-07 
       1.42925112e-07       3.37704828e-07      -6.75201745e-07 
      -4.78978923e-08       3.37704931e-07      -6.75201618e-07 
      -1.43317281e-07       3.37704900e-07      -6.75201388e-07 
       4.75057229e-08       3.37704796e-07      -6.75201514e-07 
       1.42925112e-07       3.37704828e-07      -6.75201745e-07 
      -5.69251497e-08       4.83128698e-07      -9.66045813e-07 
      -1.70291573e-07       4.83128654e-07      -9.66045523e-07 
       5.64540370e-08       4.83128543e-07      -9.66045702e-07 
       1.69820461e-07       4.83128588e-07      -9.66045992e-07 
      -5.69251497e-08       4.83128698e-07      -9.66045813e-07 
      -1.70291573e-07       4.83128654e-07      -9.66045523e-07 
       5.64540370e-08       4.83128543e-07      -9.66045702e-07 
       1.69820461e-07       4.83128588e-07      -9.66045992e-07 
      -6.57682959e-08       6.53282021e-07      -1.30639622e-06 
      -1.96702806e-07       6.53281961e-07      -1.30639586e-06 
       6.52180792e-08       6.53281847e-07      -1.30639610e-06 
       1.96152590e-07       6.53281907e-07      -1.30639646e-06 
      -6.57682959e-08       6.53282021e-07      -1.30639622e-06 
      -1.96702806e-07       6.53281961e-07      -1.30639586e-06 
       6.52180792e-08       6.53281847e-07      -1.30639610e-06 
       1.96152590e-07       6.53281907e-07      -1.30639646e-06 
      -7.44273296e-08       8.47637168e-07      -1.69521208e-06 
      -2.22550980e-07       8.47637092e-07      -1.69521166e-06 
       7.37978496e-08       8.47636978e-07      -1.69521197e-06 
       2.21921500e-07       8.47637055e-07      -1.69521238e-06 
      -7.44273296e-08       8.47637168e-07      -1.69521208e-06 
      -2.22550980e-07       8.47637092e-07      -1.69521166e-06 
       7.37978496e-08       8.47636978e-07      -1.69521197e-06 
       2.21921500e-07       8.47637055e-07      -1.69521238e-06 
      -8.29022486e-08       1.06566641e-06      -2.13145265e-06 
      -2.47836090e-07       1.06566632e-06      -2.13145216e-06 
       8.21933510e-08       1.06566621e-06      -2.13145254e-06 
       2.47127193e-07       1.06566630e-06      -2.13145303e-06 
      -8.29022486e-08       1.06566641e-06      -2.13145265e-06 
      -2.47836090e-07       1.06566632e-06      -2.13145216e-06 
       8.21933510e-08       1.06566621e-06      -2.13145254e-06 
       2.47127193e-07       1.06566630e-06      -2.13145303e-06 
      -9.11930522e-08       1.30684202e-06      -2.61407718e-06 
      -2.72558138e-07       1.30684190e-06      -2.61407662e-06 
       9.04045843e-08       1.30684180e-06      -2.61407708e-06 
       2.71769670e-07       1.30684191e-06      -2.61407764e-06 
      -9.11930520e-08       1.30684202e-06      -2.61407718e-06 
      -2.72558138e-07       1.30684190e-06      -2.61407662e-06 
       9.04045847e-08       1.30684180e-06      -2.61407708e-06 
       2.71769670e-07       1.30684191e-06      -2.61407764e-06 
      -9.92937199e-08       1.57064561e-06      -3.14206258e-06 
      -2.96731105e-07       1.57064547e-06      -3.14206196e-06 
       9.84552098e-08       1.57064539e-06      -3.14206250e-06 
       2.95892595e-07       1.57064553e-06      -3.14206313e-06 
      -9.92937199e-08       1.57064561e-06      -3.14206258e-06 
      -2.96731105e-07       1.57064547e-06      -3.14206196e-06 
       9.84552098e-08       1.57064539e-06      -3.14206250e-06 
       2.95892595e-07       1.57064553e-06      -3.14206313e-06 
      -1.07227529e-07       1.85659537e-06      -3.71445414e-06 
      -3.20397633e-07       1.85659522e-06      -3.71445345e-06 
       1.06338581e-07       1.85659516e-06      -3.71445409e-06 
       3.19508684e-07       1.85659532e-06      -3.71445478e-06 
      -1.07227529e-07       1.85659537e-06      -3.71445414e-06 
      -3.20397633e-07       1.85659522e-06      -3.71445345e-06 
       1.06338581e-07       1.85659516e-06      -3.71445409e-06 
       3.19508684e-07       1.85659532e-06      -3.71445478e-06 
      -1.14994477e-07       2.16421840e-06      -4.33031366e-06 
      -3.43557719e-07       2.16421822e-06      -4.33031290e-06 
       1.14054700e-07       2.16421819e-06      -4.33031363e-06 
       3.42617942e-07       2.16421837e-06      -4.33031439e-06 
      -1.14994477e-07       2.16421840e-06      -4.33031366e-06 
      -3.43557719e-07       2.16421822e-06      -4.33031290e-06 
       1.14054700e-07       2.16421819e-06      -4.33031363e-06 
       3.42617942e-07       2.16421837e-06      -4.33031439e-06 
      -1.22594559e-07       2.49304179e-06      -4.98870294e-06 
      -3.66211358e-07       2.49304158e-06      -4.98870211e-06 
       1.21603573e-07       2.49304158e-06      -4.98870294e-06 
       3.65220372e-07       2.49304179e-06      -4.98870376e-06 
      -1.22594559e-07       2.49304179e-06      -4.98870294e-06 
      -3.66211358e-07       2.49304158e-06      -4.98870211e-06 
       1.21603573e-07       2.49304158e-06      -4.98870294e-06 
       3.65220372e-07       2.49304179e-06      -4.98870376e-06 
      -1.30027770e-07       2.84259262e-06      -5.68868377e-06 
      -3.88358546e-07       2.84259239e-06      -5.68868287e-06 
       1.28985203e-07       2.84259242e-06      -5.68868380e-06 
       3.87315978e-07       2.84259266e-06      -5.68868470e-06 
      -1.30027770e-07       2.84259262e-06      -5.68868377e-06 
      -3.88358546e-07       2.84259239e-06      -5.68868287e-06 
       1.28985203e-07       2.84259242e-06      -5.68868380e-06 
       3.87315978e-07       2.84259266e-06      -5.68868470e-06 
      -1.37294108e-07       3.21239800e-06      -6.42931796e-06 
      -4.09999279e-07       3.21239774e-06      -6.42931699e-06 
       1.36199594e-07       3.21239781e-06      -6.42931803e-06 
       4.08904766e-07       3.21239807e-06      -6.42931900e-06 
      -1.37294108e-07       3.21239800e-06      -6.42931796e-06 
      -4.09999279e-07       3.21239774e-06      -6.42931699e-06 
       1.36199594e-07       3.21239781e-06      -6.42931803e-06 
       4.08904766e-07       3.21239807e-06      -6.42931900e-06 
      -1.44393565e-07       3.60198501e-06      -7.20966731e-06 
      -4.31133552e-07       3.60198473e-06      -7.20966627e-06 
       1.43246752e-07       3.60198483e-06      -7.20966742e-06 
       4.29986739e-07       3.60198511e-06      -7.20966846e-06 
      -1.44393565e-07       3.60198501e-06      -7.20966731e-06 
      -4.31133552e-07       3.60198473e-06      -7.20966627e-06 
       1.43246752e-07       3.60198483e-06      -7.20966742e-06 
       4.29986739e-07       3.60198511e-06      -7.20966846e-06 
      -1.51326141e-07       4.01088075e-06      -8.02879362e-06 
      -4.51761362e-07       4.01088044e-06      -8.02879250e-06 
       1.50126680e-07       4.01088058e-06      -8.02879376e-06 
       4.50561901e-07       4.01088089e-06      -8.02879489e-06 
      -1.51326141e-07       4.01088075e-06      -8.02879362e-06 
      -4.51761362e-07       4.01088044e-06      -8.02879250e-06 
       1.50126680e-07       4.01088058e-06      -8.02879376e-06 
       4.50561901e-07       4.01088089e-06      -8.02879489e-06 
      -1.58091828e-07       4.43861231e-06      -8.88575869e-06 
      -4.71882704e-07       4.43861197e-06      -8.88575749e-06 
       1.56839381e-07       4.43861215e-06      -8.88575887e-06 
       4.70630257e-07       4.43861249e-06      -8.88576007e-06 
      -1.58091828e-07       4.43861231e-06      -8.88575869e-06 
      -4.71882704e-07       4.43861197e-06      -8.88575749e-06 
       1.56839381e-07       4.43861215e-06      -8.88575887e-06 
       4.70630257e-07       4.43861249e-06      -8.88576007e-06 
      -1.64690624e-07       4.88470679e-06      -9.77962432e-06 
      -4.91497573e-07       4.88470642e-06      -9.77962304e-06 
       1.63384862e-07       4.88470663e-06      -9.77962454e-06 
       4.90191811e-07       4.88470700e-06      -9.77962581e-06 
      -1.64690625e-07       4.88470679e-06      -9.77962432e-06 
      -4.91497573e-07       4.88470642e-06      -9.77962304e-06 
       1.63384862e-07       4.88470663e-06      -9.77962454e-06 
       4.90191811e-07       4.88470700e-06      -9.77962581e-06 
      -1.71120310e-07       5.34870033e-06      -1.07094688e-05 
      -5.10623304e-07       5.34869993e-06      -1.07094675e-05 
       1.69781807e-07       5.34870019e-06      -1.07094691e-05 
       5.09284801e-07       5.34870059e-06      -1.07094704e-05 
      -1.71120310e-07       5.34870033e-06      -1.07094688e-05 
      -5.10623304e-07       5.34869993e-06      -1.07094675e-05 
       1.69781807e-07       5.34870019e-06      -1.07094691e-05 
       5.09284801e-07       5.34870059e-06      -1.07094704e-05 
      -1.77400532e-07       5.83016550e-06      -1.16744391e-05 
      -5.29299188e-07       5.83016506e-06      -1.16744377e-05 
       1.76028818e-07       5.83016537e-06      -1.16744394e-05 
       5.27927473e-07       5.83016581e-06      -1.16744408e-05 
      -1.77400532e-07       5.83016550e-06      -1.16744391e-05 
      -5.29299188e-07       5.83016506e-06      -1.16744377e-05 
       1.76028818e-07       5.83016537e-06      -1.16744394e-05 
       5.27927473e-07       5.83016581e-06      -1.16744408e-05 
      -1.83531286e-07       6.32868396e-06      -1.26736999e-05 
      -5.47525220e-07       6.32868350e-06      -1.26736984e-05 
       1.82125899e-07       6.32868386e-06      -1.26737002e-05 
       5.46119834e-07       6.32868432e-06      -1.26737017e-05 
      -1.83531286e-07       6.32868396e-06      -1.26736999e-05 
      -5.47525220e-07       6.32868350e-06      -1.26736984e-05 
       1.82125899e-07       6.32868386e-06      -1.26737002e-05 
       5.46119834e-07       6.32868432e-06      -1.26737017e-05 
      -1.89512567e-07       6.84383741e-06      -1.37064159e-05 
      -5.65301396e-07       6.84383692e-06      -1.37064143e-05 
       1.88073056e-07       6.84383733e-06      -1.37064163e-05 
       5.63861885e-07       6.84383782e-06      -1.37064179e-05 
      -1.89512567e-07       6.84383741e-06      -1.37064159e-05 
      -5.65301396e-07       6.84383692e-06      -1.37064143e-05 
       1.88073056e-07       6.84383733e-06      -1.37064163e-05 
       5.63861885e-07       6.84383782e-06      -1.37064179e-05 
      -1.95344366e-07       7.37520752e-06      -1.47717519e-05 
      -5.82627708e-07       7.37520700e-06      -1.47717503e-05 
       1.93870293e-07       7.37520746e-06      -1.47717524e-05 
       5.81153635e-07       7.37520798e-06      -1.47717540e-05 
      -1.95344366e-07       7.37520752e-06      -1.47717519e-05 
      -5.82627708e-07       7.37520700e-06      -1.47717503e-05 
       1.93870293e-07       7.37520746e-06      -1.47717524e-05 
       5.81153635e-07       7.37520798e-06      -1.47717540e-05 
      -2.01026682e-07       7.92237597e-06      -1.58688727e-05 
      -5.99504152e-07       7.92237542e-06      -1.58688710e-05 
       1.99517619e-07       7.92237593e-06      -1.58688732e-05 
       5.97995089e-07       7.92237648e-06      -1.58688749e-05 
      -2.01026682e-07       7.92237597e-06      -1.58688727e-05 
      -5.99504152e-07       7.92237542e-06      -1.58688710e-05 
       1.99517619e-07       7.92237593e-06      -1.58688732e-05 
       5.97995089e-07       7.92237648e-06      -1.58688749e-05 
      -2.06559506e-07       8.48492444e-06      -1.69969429e-05 
      -6.15930722e-07       8.48492386e-06      -1.69969411e-05 
       2.05015037e-07       8.48492442e-06      -1.69969434e-05 
       6.14386252e-07       8.48492500e-06      -1.69969452e-05 
      -2.06559506e-07       8.48492444e-06      -1.69969429e-05 
      -6.15930722e-07       8.48492386e-06      -1.69969411e-05 
       2.05015037e-07       8.48492442e-06      -1.69969434e-05 
       6.14386252e-07       8.48492500e-06      -1.69969452e-05 
      -2.11942833e-07       9.06243462e-06      -1.81551272e-05 
      -6.31907410e-07       9.06243400e-06      -1.81551254e-05 
       2.10362554e-07       9.06243461e-06      -1.81551278e-05 
       6.30327131e-07       9.06243523e-06      -1.81551297e-05 
      -2.11942833e-07       9.06243462e-06      -1.81551272e-05 
      -6.31907410e-07       9.06243400e-06      -1.81551254e-05 
       2.10362554e-07       9.06243461e-06      -1.81551278e-05 
       6.30327131e-07       9.06243523e-06      -1.81551297e-05 
      -2.17176658e-07       9.65448817e-06      -1.93425905e-05 
      -6.47434214e-07       9.65448753e-06      -1.93425885e-05 
       2.15560174e-07       9.65448819e-06      -1.93425911e-05 
       6.45817729e-07       9.65448883e-06      -1.93425931e-05 
      -2.17176658e-07       9.65448817e-06      -1.93425905e-05 
      -6.47434214e-07       9.65448753e-06      -1.93425885e-05 
       2.15560174e-07       9.65448819e-06      -1.93425911e-05 
       6.45817729e-07       9.65448883e-06      -1.93425931e-05 
      -2.22260976e-07       1.02606668e-05      -2.05584974e-05 
      -6.62511127e-07       1.02606661e-05      -2.05584954e-05 
       2.20607904e-07       1.02606668e-05      -2.05584981e-05 
       6.60858055e-07       1.02606675e-05      -2.05585001e-05 
      -2.22260976e-07       1.02606668e-05      -2.05584974e-05 
      -6.62511127e-07       1.02606661e-05      -2.05584954e-05 
       2.20607904e-07       1.02606668e-05      -2.05584981e-05 
       6.60858055e-07       1.02606675e-05      -2.05585001e-05 
      -2.27197273e-07       1.08805611e-05      -2.18020292e-05 
      -6.77159145e-07       1.08805604e-05      -2.18020271e-05 
       2.25521175e-07       1.08805612e-05      -2.18020300e-05 
       6.75483046e-07       1.08805619e-05      -2.18020320e-05 
      -2.27197273e-07       1.08805611e-05      -2.18020292e-05 
      -6.77159145e-07       1.08805604e-05      -2.18020271e-05 
       2.25521175e-07       1.08805612e-05      -2.18020300e-05 
       6.75483046e-07       1.08805619e-05      -2.18020320e-05 
      -2.32002325e-07       1.15137985e-05      -2.30724377e-05 
      -6.91414927e-07       1.15137978e-05      -2.30724356e-05 
       2.30302747e-07       1.15137986e-05      -2.30724385e-05 
       6.89715348e-07       1.15137994e-05      -2.30724406e-05 
      -2.32002325e-07       1.15137985e-05      -2.30724377e-05 
      -6.91414927e-07       1.15137978e-05      -2.30724356e-05 
       2.30302747e-07       1.15137986e-05      -2.30724385e-05 
       6.89715348e-07       1.15137994e-05      -2.30724406e-05 
      -2.36676124e-07       1.21600155e-05      -2.43689932e-05 
      -7.05278466e-07       1.21600147e-05      -2.43689910e-05 
       2.34952624e-07       1.21600156e-05      -2.43689941e-05 
       7.03554966e-07       1.21600163e-05      -2.43689963e-05 
      -2.36676124e-07       1.21600155e-05      -2.43689932e-05 
      -7.05278466e-07       1.21600147e-05      -2.43689910e-05 
       2.34952624e-07       1.21600156e-05      -2.43689941e-05 
       7.03554966e-07       1.21600163e-05      -2.43689963e-05 
      -2.41218666e-07       1.28188485e-05      -2.56909660e-05 
      -7.18749757e-07       1.28188477e-05      -2.56909638e-05 
       2.39470814e-07       1.28188486e-05      -2.56909669e-05 
       7.17001905e-07       1.28188494e-05      -2.56909692e-05 
      -2.41218666e-07       1.28188485e-05      -2.56909660e-05 
      -7.18749757e-07       1.28188477e-05      -2.56909638e-05 
       2.39470814e-07       1.28188486e-05      -2.56909669e-05 
       7.17001905e-07       1.28188494e-05      -2.56909692e-05 
      -2.45629945e-07       1.34899342e-05      -2.70376266e-05 
      -7.31828795e-07       1.34899334e-05      -2.70376242e-05 
       2.43857322e-07       1.34899343e-05      -2.70376276e-05 
       7.30056173e-07       1.34899352e-05      -2.70376299e-05 
      -2.45629945e-07       1.34899342e-05      -2.70376266e-05 
      -7.31828795e-07       1.34899334e-05      -2.70376242e-05 
       2.43857322e-07       1.34899343e-05      -2.70376276e-05 
       7.30056173e-07       1.34899352e-05      -2.70376299e-05 
      -2.49909951e-07       1.41729090e-05      -2.84082452e-05 
      -7.44515572e-07       1.41729082e-05      -2.84082428e-05 
       2.48112154e-07       1.41729092e-05      -2.84082462e-05 
       7.42717774e-07       1.41729101e-05      -2.84082486e-05 
      -2.49909951e-07       1.41729090e-05      -2.84082452e-05 
      -7.44515572e-07       1.41729082e-05      -2.84082428e-05 
       2.48112154e-07       1.41729092e-05      -2.84082462e-05 
       7.42717774e-07       1.41729101e-05      -2.84082486e-05 
      -2.54058683e-07       1.48674096e-05      -2.98020922e-05 
      -7.56810083e-07       1.48674087e-05      -2.98020898e-05 
       2.52235317e-07       1.48674098e-05      -2.98020933e-05 
       7.54986717e-07       1.48674107e-05      -2.98020958e-05 
      -2.54058683e-07       1.48674096e-05      -2.98020922e-05 
      -7.56810083e-07       1.48674087e-05      -2.98020898e-05 
       2.52235317e-07       1.48674098e-05      -2.98020933e-05 
       7.54986717e-07       1.48674107e-05      -2.98020958e-05 
      -2.58076130e-07       1.55730724e-05      -3.12184380e-05 
      -7.68712319e-07       1.55730715e-05      -3.12184355e-05 
       2.56226818e-07       1.55730726e-05      -3.12184392e-05 
       7.66863007e-07       1.55730735e-05      -3.12184417e-05 
      -2.58076130e-07       1.55730724e-05      -3.12184380e-05 
      -7.68712319e-07       1.55730715e-05      -3.12184355e-05 