# vtk DataFile Version 2.0
./output/onsasExample_BladeCantileverBeamNoPitch_windVel3DDynamic 3D/onsasExample_BladeCantileverBeamNoPitch_windVel3DDynamic 3D_0207.vtk
ASCII
DATASET UNSTRUCTURED_GRID

POINTS 800 float
       2.779594e-24      -7.180703e-02      -7.180703e-02 
       3.747649e-24       7.180703e-02      -7.180703e-02 
      -2.779594e-24       7.180703e-02       7.180703e-02 
      -3.747649e-24      -7.180703e-02       7.180703e-02 
       2.000000e-01      -7.180702e-02      -7.180706e-02 
       2.000000e-01       7.180705e-02      -7.180706e-02 
       2.000000e-01       7.180705e-02       7.180701e-02 
       2.000000e-01      -7.180702e-02       7.180701e-02 
       2.000000e-01      -7.180702e-02      -7.180706e-02 
       2.000000e-01       7.180705e-02      -7.180706e-02 
       2.000000e-01       7.180705e-02       7.180701e-02 
       2.000000e-01      -7.180702e-02       7.180701e-02 
       4.000000e-01      -7.180698e-02      -7.180713e-02 
       3.999999e-01       7.180709e-02      -7.180713e-02 
       4.000000e-01       7.180709e-02       7.180693e-02 
       4.000001e-01      -7.180698e-02       7.180693e-02 
       4.000000e-01      -7.180698e-02      -7.180713e-02 
       3.999999e-01       7.180709e-02      -7.180713e-02 
       4.000000e-01       7.180709e-02       7.180693e-02 
       4.000001e-01      -7.180698e-02       7.180693e-02 
       6.000000e-01      -7.180691e-02      -7.180726e-02 
       5.999999e-01       7.180716e-02      -7.180726e-02 
       6.000000e-01       7.180716e-02       7.180681e-02 
       6.000001e-01      -7.180691e-02       7.180681e-02 
       6.000000e-01      -7.180691e-02      -7.180726e-02 
       5.999999e-01       7.180716e-02      -7.180726e-02 
       6.000000e-01       7.180716e-02       7.180681e-02 
       6.000001e-01      -7.180691e-02       7.180681e-02 
       8.000000e-01      -7.180681e-02      -7.180743e-02 
       7.999999e-01       7.180725e-02      -7.180743e-02 
       8.000000e-01       7.180725e-02       7.180663e-02 
       8.000001e-01      -7.180681e-02       7.180663e-02 
       8.000000e-01      -7.180681e-02      -7.180743e-02 
       7.999999e-01       7.180725e-02      -7.180743e-02 
       8.000000e-01       7.180725e-02       7.180663e-02 
       8.000001e-01      -7.180681e-02       7.180663e-02 
       1.000000e+00      -7.180669e-02      -7.180766e-02 
       9.999999e-01       7.180737e-02      -7.180766e-02 
       1.000000e+00       7.180737e-02       7.180641e-02 
       1.000000e+00      -7.180669e-02       7.180641e-02 
       1.000000e+00      -7.180669e-02      -7.180766e-02 
       9.999999e-01       7.180737e-02      -7.180766e-02 
       1.000000e+00       7.180737e-02       7.180641e-02 
       1.000000e+00      -7.180669e-02       7.180641e-02 
       1.200000e+00      -7.180655e-02      -7.180793e-02 
       1.200000e+00       7.180752e-02      -7.180793e-02 
       1.200000e+00       7.180752e-02       7.180614e-02 
       1.200000e+00      -7.180655e-02       7.180614e-02 
       1.200000e+00      -7.180655e-02      -7.180793e-02 
       1.200000e+00       7.180752e-02      -7.180793e-02 
       1.200000e+00       7.180752e-02       7.180614e-02 
       1.200000e+00      -7.180655e-02       7.180614e-02 
       1.400000e+00      -7.180638e-02      -7.180824e-02 
       1.400000e+00       7.180769e-02      -7.180824e-02 
       1.400000e+00       7.180769e-02       7.180583e-02 
       1.400000e+00      -7.180638e-02       7.180583e-02 
       1.400000e+00      -7.180638e-02      -7.180824e-02 
       1.400000e+00       7.180769e-02      -7.180824e-02 
       1.400000e+00       7.180769e-02       7.180583e-02 
       1.400000e+00      -7.180638e-02       7.180583e-02 
       1.600000e+00      -7.180618e-02      -7.180860e-02 
       1.600000e+00       7.180788e-02      -7.180860e-02 
       1.600000e+00       7.180788e-02       7.180547e-02 
       1.600000e+00      -7.180618e-02       7.180547e-02 
       1.600000e+00      -7.180618e-02      -7.180860e-02 
       1.600000e+00       7.180788e-02      -7.180860e-02 
       1.600000e+00       7.180788e-02       7.180547e-02 
       1.600000e+00      -7.180618e-02       7.180547e-02 
       1.800000e+00      -7.180596e-02      -7.180900e-02 
       1.800000e+00       7.180810e-02      -7.180900e-02 
       1.800000e+00       7.180810e-02       7.180507e-02 
       1.800000e+00      -7.180596e-02       7.180507e-02 
       1.800000e+00      -7.180596e-02      -7.180900e-02 
       1.800000e+00       7.180810e-02      -7.180900e-02 
       1.800000e+00       7.180810e-02       7.180507e-02 
       1.800000e+00      -7.180596e-02       7.180507e-02 
       2.000000e+00      -7.180572e-02      -7.180944e-02 
       2.000000e+00       7.180835e-02      -7.180944e-02 
       2.000000e+00       7.180835e-02       7.180462e-02 
       2.000000e+00      -7.180572e-02       7.180462e-02 
       2.000000e+00      -7.180572e-02      -7.180944e-02 
       2.000000e+00       7.180835e-02      -7.180944e-02 
       2.000000e+00       7.180835e-02       7.180462e-02 
       2.000000e+00      -7.180572e-02       7.180462e-02 
       2.200000e+00      -7.180546e-02      -7.180993e-02 
       2.200000e+00       7.180861e-02      -7.180993e-02 
       2.200000e+00       7.180861e-02       7.180413e-02 
       2.200000e+00      -7.180546e-02       7.180413e-02 
       2.200000e+00      -7.180546e-02      -7.180993e-02 
       2.200000e+00       7.180861e-02      -7.180993e-02 
       2.200000e+00       7.180861e-02       7.180413e-02 
       2.200000e+00      -7.180546e-02       7.180413e-02 
       2.400000e+00      -7.180517e-02      -7.181046e-02 
       2.400000e+00       7.180890e-02      -7.181046e-02 
       2.400000e+00       7.180890e-02       7.180361e-02 
       2.400000e+00      -7.180517e-02       7.180361e-02 
       2.400000e+00      -7.180517e-02      -7.181046e-02 
       2.400000e+00       7.180890e-02      -7.181046e-02 
       2.400000e+00       7.180890e-02       7.180361e-02 
       2.400000e+00      -7.180517e-02       7.180361e-02 
       2.600000e+00      -7.180486e-02      -7.181103e-02 
       2.600000e+00       7.180921e-02      -7.181103e-02 
       2.600000e+00       7.180921e-02       7.180304e-02 
       2.600000e+00      -7.180486e-02       7.180304e-02 
       2.600000e+00      -7.180486e-02      -7.181103e-02 
       2.600000e+00       7.180921e-02      -7.181103e-02 
       2.600000e+00       7.180921e-02       7.180304e-02 
       2.600000e+00      -7.180486e-02       7.180304e-02 
       2.800000e+00      -7.180453e-02      -7.181163e-02 
       2.800000e+00       7.180954e-02      -7.181163e-02 
       2.800000e+00       7.180954e-02       7.180244e-02 
       2.800000e+00      -7.180453e-02       7.180244e-02 
       2.800000e+00      -7.180453e-02      -7.181163e-02 
       2.800000e+00       7.180954e-02      -7.181163e-02 
       2.800000e+00       7.180954e-02       7.180244e-02 
       2.800000e+00      -7.180453e-02       7.180244e-02 
       3.000000e+00      -7.180418e-02      -7.181227e-02 
       3.000000e+00       7.180989e-02      -7.181227e-02 
       3.000000e+00       7.180989e-02       7.180179e-02 
       3.000000e+00      -7.180418e-02       7.180179e-02 
       3.000000e+00      -7.180418e-02      -7.181227e-02 
       3.000000e+00       7.180989e-02      -7.181227e-02 
       3.000000e+00       7.180989e-02       7.180179e-02 
       3.000000e+00      -7.180418e-02       7.180179e-02 
       3.200000e+00      -7.180381e-02      -7.181296e-02 
       3.200000e+00       7.181026e-02      -7.181296e-02 
       3.200000e+00       7.181026e-02       7.180111e-02 
       3.200000e+00      -7.180381e-02       7.180111e-02 
       3.200000e+00      -7.180381e-02      -7.181296e-02 
       3.200000e+00       7.181026e-02      -7.181296e-02 
       3.200000e+00       7.181026e-02       7.180111e-02 
       3.200000e+00      -7.180381e-02       7.180111e-02 
       3.400000e+00      -7.180341e-02      -7.181367e-02 
       3.400000e+00       7.181065e-02      -7.181367e-02 
       3.400000e+00       7.181065e-02       7.180039e-02 
       3.400000e+00      -7.180341e-02       7.180039e-02 
       3.400000e+00      -7.180341e-02      -7.181367e-02 
       3.400000e+00       7.181065e-02      -7.181367e-02 
       3.400000e+00       7.181065e-02       7.180039e-02 
       3.400000e+00      -7.180341e-02       7.180039e-02 
       3.600000e+00      -7.180300e-02      -7.181443e-02 
       3.600000e+00       7.181106e-02      -7.181443e-02 
       3.600000e+00       7.181106e-02       7.179964e-02 
       3.600000e+00      -7.180300e-02       7.179964e-02 
       3.600000e+00      -7.180300e-02      -7.181443e-02 
       3.600000e+00       7.181106e-02      -7.181443e-02 
       3.600000e+00       7.181106e-02       7.179964e-02 
       3.600000e+00      -7.180300e-02       7.179964e-02 
       3.800000e+00      -7.180257e-02      -7.181521e-02 
       3.800000e+00       7.181149e-02      -7.181521e-02 
       3.800000e+00       7.181149e-02       7.179885e-02 
       3.800000e+00      -7.180257e-02       7.179885e-02 
       3.800000e+00      -7.180257e-02      -7.181521e-02 
       3.800000e+00       7.181149e-02      -7.181521e-02 
       3.800000e+00       7.181149e-02       7.179885e-02 
       3.800000e+00      -7.180257e-02       7.179885e-02 
       4.000000e+00      -7.180213e-02      -7.181603e-02 
       4.000000e+00       7.181194e-02      -7.181603e-02 
       4.000000e+00       7.181194e-02       7.179803e-02 
       4.000000e+00      -7.180213e-02       7.179803e-02 
       4.000000e+00      -7.180213e-02      -7.181603e-02 
       4.000000e+00       7.181194e-02      -7.181603e-02 
       4.000000e+00       7.181194e-02       7.179803e-02 
       4.000000e+00      -7.180213e-02       7.179803e-02 
       4.200000e+00      -7.180166e-02      -7.181689e-02 
[...]
POINT_DATA       800 
VECTORS Displacements float
       2.77959449e-24      -1.38777878e-17      -1.38777878e-17 
       3.74764878e-24       2.77555756e-17      -1.38777878e-17 
      -2.77959449e-24       1.38777878e-17       1.38777878e-17 
      -3.74764878e-24      -2.77555756e-17       1.38777878e-17 
      -8.40767087e-09       1.39203512e-08      -2.56140034e-08 
      -2.83359424e-08       1.39203499e-08      -2.56139724e-08 
       8.32999592e-09       1.39203240e-08      -2.56139771e-08 
       2.82582674e-08       1.39203253e-08      -2.56140080e-08 
      -8.40767087e-09       1.39203512e-08      -2.56140034e-08 
      -2.83359424e-08       1.39203499e-08      -2.56139724e-08 
       8.32999592e-09       1.39203240e-08      -2.56139771e-08 
       2.82582674e-08       1.39203253e-08      -2.56140080e-08 
      -1.66472309e-08       5.53288132e-08      -1.01791122e-07 
      -5.61240260e-08       5.53288078e-08      -1.01791055e-07 
       1.64917230e-08       5.53287609e-08      -1.01791074e-07 
       5.59685182e-08       5.53287663e-08      -1.01791140e-07 
      -1.66472309e-08       5.53288132e-08      -1.01791122e-07 
      -5.61240260e-08       5.53288078e-08      -1.01791055e-07 
       1.64917230e-08       5.53287609e-08      -1.01791074e-07 
       5.59685182e-08       5.53287663e-08      -1.01791140e-07 
      -2.47186785e-08       1.23696541e-07      -2.27534062e-07 
      -8.33642492e-08       1.23696529e-07      -2.27533955e-07 
       2.44851828e-08       1.23696466e-07      -2.27533995e-07 
       8.31307534e-08       1.23696478e-07      -2.27534102e-07 
      -2.47186785e-08       1.23696541e-07      -2.27534062e-07 
      -8.33642492e-08       1.23696529e-07      -2.27533955e-07 
       2.44851828e-08       1.23696466e-07      -2.27533995e-07 
       8.31307534e-08       1.23696478e-07      -2.27534102e-07 
      -3.26220122e-08       2.18494689e-07      -4.01845528e-07 
      -1.10056611e-07       2.18494668e-07      -4.01845376e-07 
       3.23103766e-08       2.18494593e-07      -4.01845446e-07 
       1.09744975e-07       2.18494614e-07      -4.01845599e-07 
      -3.26220122e-08       2.18494689e-07      -4.01845528e-07 
      -1.10056611e-07       2.18494668e-07      -4.01845376e-07 
       3.23103766e-08       2.18494593e-07      -4.01845446e-07 
       1.09744975e-07       2.18494614e-07      -4.01845599e-07 
      -4.03572304e-08       3.39194413e-07      -6.23728226e-07 
      -1.36201108e-07       3.39194381e-07      -6.23728025e-07 
       3.99673066e-08       3.39194298e-07      -6.23728133e-07 
       1.35811185e-07       3.39194330e-07      -6.23728334e-07 
      -4.03572304e-08       3.39194413e-07      -6.23728226e-07 
      -1.36201108e-07       3.39194381e-07      -6.23728025e-07 
       3.99673066e-08       3.39194298e-07      -6.23728133e-07 
       1.35811185e-07       3.39194330e-07      -6.23728334e-07 
      -4.79243316e-08       4.85266868e-07      -8.92184862e-07 
      -1.61797741e-07       4.85266823e-07      -8.92184608e-07 
       4.74559734e-08       4.85266735e-07      -8.92184761e-07 
       1.61329383e-07       4.85266780e-07      -8.92185014e-07 
      -4.79243316e-08       4.85266868e-07      -8.92184862e-07 
      -1.61797741e-07       4.85266823e-07      -8.92184608e-07 
       4.74559734e-08       4.85266735e-07      -8.92184761e-07 
       1.61329383e-07       4.85266780e-07      -8.92185014e-07 
      -5.53233144e-08       6.56183208e-07      -1.20621814e-06 
      -1.86846508e-07       6.56183148e-07      -1.20621783e-06 
       5.47763797e-08       6.56183059e-07      -1.20621803e-06 
       1.86299573e-07       6.56183119e-07      -1.20621834e-06 
      -5.53233144e-08       6.56183208e-07      -1.20621814e-06 
      -1.86846508e-07       6.56183148e-07      -1.20621783e-06 
       5.47763797e-08       6.56183059e-07      -1.20621803e-06 
       1.86299573e-07       6.56183119e-07      -1.20621834e-06 
      -6.25541769e-08       8.51414589e-07      -1.56483077e-06 
      -2.11347406e-07       8.51414512e-07      -1.56483040e-06 
       6.19285261e-08       8.51414426e-07      -1.56483066e-06 
       2.10721755e-07       8.51414503e-07      -1.56483103e-06 
      -6.25541769e-08       8.51414589e-07      -1.56483077e-06 
      -2.11347406e-07       8.51414512e-07      -1.56483040e-06 
       6.19285261e-08       8.51414426e-07      -1.56483066e-06 
       2.10721755e-07       8.51414503e-07      -1.56483103e-06 
      -6.96169176e-08       1.07043216e-06      -1.96702545e-06 
      -2.35300435e-07       1.07043207e-06      -1.96702502e-06 
       6.89124144e-08       1.07043199e-06      -1.96702534e-06 
       2.34595932e-07       1.07043208e-06      -1.96702577e-06 
      -6.96169176e-08       1.07043216e-06      -1.96702545e-06 
      -2.35300435e-07       1.07043207e-06      -1.96702502e-06 
       6.89124144e-08       1.07043199e-06      -1.96702534e-06 
       2.34595932e-07       1.07043208e-06      -1.96702577e-06 
      -7.65115356e-08       1.31270709e-06      -2.41180489e-06 
      -2.58705592e-07       1.31270698e-06      -2.41180439e-06 
       7.57280461e-08       1.31270690e-06      -2.41180478e-06 
       2.57922103e-07       1.31270702e-06      -2.41180528e-06 
      -7.65115353e-08       1.31270709e-06      -2.41180489e-06 
      -2.58705592e-07       1.31270698e-06      -2.41180439e-06 
       7.57280465e-08       1.31270690e-06      -2.41180478e-06 
       2.57922103e-07       1.31270702e-06      -2.41180528e-06 
      -8.32327292e-08       1.57771933e-06      -2.89818891e-06 
      -2.81576761e-07       1.57771920e-06      -2.89818835e-06 
       8.23990574e-08       1.57771915e-06      -2.89818882e-06 
       2.80743089e-07       1.57771928e-06      -2.89818937e-06 
      -8.32327292e-08       1.57771933e-06      -2.89818891e-06 
      -2.81576761e-07       1.57771920e-06      -2.89818835e-06 
       8.23990574e-08       1.57771915e-06      -2.89818882e-06 
       2.80743089e-07       1.57771928e-06      -2.89818937e-06 
      -8.98051495e-08       1.86498520e-06      -3.42526939e-06 
      -3.03958540e-07       1.86498504e-06      -3.42526878e-06 
       8.89209466e-08       1.86498502e-06      -3.42526931e-06 
       3.03074338e-07       1.86498517e-06      -3.42526992e-06 
      -8.98051495e-08       1.86498520e-06      -3.42526939e-06 
      -3.03958540e-07       1.86498504e-06      -3.42526878e-06 
       8.89209466e-08       1.86498502e-06      -3.42526931e-06 
       3.03074338e-07       1.86498517e-06      -3.42526992e-06 
      -9.62287925e-08       2.17403034e-06      -3.99215713e-06 
      -3.25850926e-07       2.17403015e-06      -3.99215646e-06 
       9.52937182e-08       2.17403016e-06      -3.99215708e-06 
       3.24915852e-07       2.17403034e-06      -3.99215775e-06 
      -9.62287925e-08       2.17403034e-06      -3.99215713e-06 
      -3.25850926e-07       2.17403015e-06      -3.99215646e-06 
       9.52937182e-08       2.17403016e-06      -3.99215708e-06 
       3.24915852e-07       2.17403034e-06      -3.99215775e-06 
      -1.02503655e-07       2.50438040e-06      -4.59796293e-06 
      -3.47253915e-07       2.50438019e-06      -4.59796219e-06 
       1.01517377e-07       2.50438023e-06      -4.59796290e-06 
       3.46267637e-07       2.50438044e-06      -4.59796363e-06 
      -1.02503655e-07       2.50438040e-06      -4.59796293e-06 
      -3.47253915e-07       2.50438019e-06      -4.59796219e-06 
       1.01517377e-07       2.50438023e-06      -4.59796290e-06 
       3.46267637e-07       2.50438044e-06      -4.59796363e-06 
      -1.08629733e-07       2.85556104e-06      -5.24179758e-06 
      -3.68167504e-07       2.85556081e-06      -5.24179678e-06 
       1.07591924e-07       2.85556087e-06      -5.24179757e-06 
       3.67129696e-07       2.85556111e-06      -5.24179837e-06 
      -1.08629733e-07       2.85556104e-06      -5.24179758e-06 
      -3.68167504e-07       2.85556081e-06      -5.24179678e-06 
       1.07591924e-07       2.85556087e-06      -5.24179757e-06 
       3.67129696e-07       2.85556111e-06      -5.24179837e-06 
      -1.14607023e-07       3.22709791e-06      -5.92277188e-06 
      -3.88591689e-07       3.22709765e-06      -5.92277102e-06 
       1.13517365e-07       3.22709774e-06      -5.92277190e-06 
       3.87502031e-07       3.22709801e-06      -5.92277276e-06 
      -1.14607023e-07       3.22709791e-06      -5.92277188e-06 
      -3.88591689e-07       3.22709765e-06      -5.92277102e-06 
       1.13517365e-07       3.22709774e-06      -5.92277190e-06 
       3.87502031e-07       3.22709801e-06      -5.92277276e-06 
      -1.20435520e-07       3.61851665e-06      -6.63999663e-06 
      -4.08526464e-07       3.61851636e-06      -6.63999570e-06 
       1.19293705e-07       3.61851650e-06      -6.63999667e-06 
       4.07384649e-07       3.61851678e-06      -6.63999760e-06 
      -1.20435520e-07       3.61851665e-06      -6.63999663e-06 
      -4.08526464e-07       3.61851636e-06      -6.63999570e-06 
       1.19293705e-07       3.61851650e-06      -6.63999667e-06 
       4.07384649e-07       3.61851678e-06      -6.63999760e-06 
      -1.26115221e-07       4.02934293e-06      -7.39258261e-06 
      -4.27971828e-07       4.02934261e-06      -7.39258162e-06 
       1.24920945e-07       4.02934278e-06      -7.39258268e-06 
       4.26777552e-07       4.02934309e-06      -7.39258368e-06 
      -1.26115221e-07       4.02934293e-06      -7.39258261e-06 
      -4.27971828e-07       4.02934261e-06      -7.39258162e-06 
       1.24920945e-07       4.02934278e-06      -7.39258268e-06 
       4.26777552e-07       4.02934309e-06      -7.39258368e-06 
      -1.31646122e-07       4.45910238e-06      -8.17964064e-06 
      -4.46927776e-07       4.45910203e-06      -8.17963958e-06 
       1.30399091e-07       4.45910224e-06      -8.17964074e-06 
       4.45680744e-07       4.45910258e-06      -8.17964180e-06 
      -1.31646122e-07       4.45910238e-06      -8.17964064e-06 
      -4.46927776e-07       4.45910203e-06      -8.17963958e-06 
       1.30399091e-07       4.45910224e-06      -8.17964074e-06 
       4.45680744e-07       4.45910258e-06      -8.17964180e-06 
      -1.37028220e-07       4.90732066e-06      -9.00028151e-06 
      -4.65394304e-07       4.90732029e-06      -9.00028037e-06 
       1.35728145e-07       4.90732053e-06      -9.00028163e-06 
       4.64094228e-07       4.90732090e-06      -9.00028276e-06 
      -1.37028220e-07       4.90732066e-06      -9.00028151e-06 
      -4.65394304e-07       4.90732029e-06      -9.00028037e-06 
       1.35728144e-07       4.90732053e-06      -9.00028163e-06 
       4.64094228e-07       4.90732090e-06      -9.00028276e-06 
      -1.42261200e-07       5.37353247e-06      -9.85363420e-06 
      -4.83390689e-07       5.37353207e-06      -9.85363300e-06 
       1.40928058e-07       5.37353235e-06      -9.85363436e-06 
       4.82057546e-07       5.37353276e-06      -9.85363556e-06 
      -1.42261200e-07       5.37353247e-06      -9.85363420e-06 
      -4.83390689e-07       5.37353207e-06      -9.85363300e-06 
       1.40928058e-07       5.37353235e-06      -9.85363436e-06 
       4.82057546e-07       5.37353276e-06      -9.85363556e-06 
      -1.47364934e-07       5.85730923e-06      -1.07389006e-05 
      -5.00956753e-07       5.85730880e-06      -1.07388994e-05 
       1.45998314e-07       5.85730913e-06      -1.07389008e-05 
       4.99590132e-07       5.85730956e-06      -1.07389021e-05 
      -1.47364934e-07       5.85730923e-06      -1.07389006e-05 
      -5.00956753e-07       5.85730880e-06      -1.07388994e-05 
       1.45998314e-07       5.85730913e-06      -1.07389008e-05 
       4.99590132e-07       5.85730956e-06      -1.07389021e-05 
      -1.52339418e-07       6.35823165e-06      -1.16553010e-05 
      -5.18092489e-07       6.35823119e-06      -1.16552996e-05 
       1.50938921e-07       6.35823157e-06      -1.16553012e-05 
       5.16691992e-07       6.35823203e-06      -1.16553025e-05 
      -1.52339418e-07       6.35823165e-06      -1.16553010e-05 
      -5.18092489e-07       6.35823119e-06      -1.16552996e-05 
       1.50938921e-07       6.35823157e-06      -1.16553012e-05 
       5.16691992e-07       6.35823203e-06      -1.16553025e-05 
      -1.57184645e-07       6.87588045e-06      -1.26020554e-05 
      -5.34797894e-07       6.87587995e-06      -1.26020540e-05 
       1.55749881e-07       6.87588038e-06      -1.26020556e-05 
       5.33363130e-07       6.87588088e-06      -1.26020570e-05 
      -1.57184645e-07       6.87588045e-06      -1.26020554e-05 
      -5.34797894e-07       6.87587995e-06      -1.26020540e-05 
       1.55749881e-07       6.87588038e-06      -1.26020556e-05 
       5.33363130e-07       6.87588088e-06      -1.26020570e-05 
      -1.61900612e-07       7.40983634e-06      -1.35783840e-05 
      -5.51072962e-07       7.40983581e-06      -1.35783825e-05 
       1.60431199e-07       7.40983629e-06      -1.35783843e-05 
       5.49603549e-07       7.40983681e-06      -1.35783857e-05 
      -1.61900612e-07       7.40983634e-06      -1.35783840e-05 
      -5.51072962e-07       7.40983581e-06      -1.35783825e-05 
       1.60431199e-07       7.40983629e-06      -1.35783843e-05 
       5.49603549e-07       7.40983681e-06      -1.35783857e-05 
      -1.66487313e-07       7.95968004e-06      -1.45835070e-05 
      -5.66917689e-07       7.95967948e-06      -1.45835055e-05 
       1.64982882e-07       7.95968000e-06      -1.45835073e-05 
       5.65413258e-07       7.95968056e-06      -1.45835089e-05 
      -1.66487313e-07       7.95968004e-06      -1.45835070e-05 
      -5.66917689e-07       7.95967948e-06      -1.45835055e-05 
       1.64982882e-07       7.95968000e-06      -1.45835073e-05 
       5.65413258e-07       7.95968056e-06      -1.45835089e-05 
      -1.70944743e-07       8.52499226e-06      -1.56166446e-05 
      -5.82332069e-07       8.52499167e-06      -1.56166430e-05 
       1.69404935e-07       8.52499224e-06      -1.56166450e-05 
       5.80792260e-07       8.52499283e-06      -1.56166465e-05 
      -1.70944743e-07       8.52499226e-06      -1.56166446e-05 
      -5.82332069e-07       8.52499167e-06      -1.56166430e-05 
       1.69404935e-07       8.52499224e-06      -1.56166450e-05 
       5.80792260e-07       8.52499283e-06      -1.56166465e-05 
      -1.75272897e-07       9.10535372e-06      -1.66770169e-05 
      -5.97316096e-07       9.10535310e-06      -1.66770152e-05 
       1.73697360e-07       9.10535372e-06      -1.66770173e-05 
       5.95740560e-07       9.10535434e-06      -1.66770189e-05 
      -1.75272897e-07       9.10535372e-06      -1.66770169e-05 
      -5.97316096e-07       9.10535310e-06      -1.66770152e-05 
       1.73697360e-07       9.10535372e-06      -1.66770173e-05 
       5.95740560e-07       9.10535434e-06      -1.66770189e-05 
      -1.79471771e-07       9.70034514e-06      -1.77638440e-05 
      -6.11869767e-07       9.70034449e-06      -1.77638423e-05 
       1.77860166e-07       9.70034515e-06      -1.77638445e-05 
       6.10258162e-07       9.70034580e-06      -1.77638462e-05 
      -1.79471771e-07       9.70034514e-06      -1.77638440e-05 
      -6.11869767e-07       9.70034449e-06      -1.77638423e-05 
       1.77860166e-07       9.70034515e-06      -1.77638445e-05 
       6.10258162e-07       9.70034580e-06      -1.77638462e-05 
      -1.83541358e-07       1.03095472e-05      -1.88763463e-05 
      -6.25993077e-07       1.03095465e-05      -1.88763445e-05 
       1.81893354e-07       1.03095472e-05      -1.88763467e-05 
       6.24345073e-07       1.03095479e-05      -1.88763485e-05 
      -1.83541359e-07       1.03095472e-05      -1.88763463e-05 
      -6.25993077e-07       1.03095465e-05      -1.88763445e-05 
       1.81893355e-07       1.03095472e-05      -1.88763467e-05 
       6.24345073e-07       1.03095479e-05      -1.88763485e-05 
      -1.87484823e-07       1.09325499e-05      -2.00137622e-05 
      -6.39708979e-07       1.09325491e-05      -2.00137604e-05 
       1.85813620e-07       1.09325499e-05      -2.00137628e-05 
       6.38037776e-07       1.09325506e-05      -2.00137646e-05 
      -1.87484823e-07       1.09325499e-05      -2.00137622e-05 
      -6.39708979e-07       1.09325491e-05      -2.00137604e-05 
       1.85813620e-07       1.09325499e-05      -2.00137628e-05 
       6.38037776e-07       1.09325506e-05      -2.00137646e-05 
      -1.91318187e-07       1.15689798e-05      -2.11754031e-05 
      -6.53053418e-07       1.15689791e-05      -2.11754012e-05 
       1.89623393e-07       1.15689799e-05      -2.11754037e-05 
       6.51358625e-07       1.15689806e-05      -2.11754056e-05 
      -1.91318187e-07       1.15689798e-05      -2.11754031e-05 
      -6.53053418e-07       1.15689791e-05      -2.11754012e-05 
       1.89623393e-07       1.15689799e-05      -2.11754037e-05 
       6.51358625e-07       1.15689806e-05      -2.11754056e-05 
      -1.95041444e-07       1.22184731e-05      -2.23605977e-05 
      -6.66026391e-07       1.22184723e-05      -2.23605958e-05 
       1.93322681e-07       1.22184732e-05      -2.23605983e-05 
       6.64307628e-07       1.22184740e-05      -2.23606003e-05 
      -1.95041444e-07       1.22184731e-05      -2.23605977e-05 
      -6.66026391e-07       1.22184723e-05      -2.23605958e-05 
       1.93322681e-07       1.22184732e-05      -2.23605983e-05 
       6.64307628e-07       1.22184740e-05      -2.23606003e-05 
      -1.98654591e-07       1.28806658e-05      -2.35686749e-05 
      -6.78627892e-07       1.28806650e-05      -2.35686729e-05 
       1.96911487e-07       1.28806659e-05      -2.35686755e-05 
       6.76884787e-07       1.28806667e-05      -2.35686776e-05 
      -1.98654591e-07       1.28806658e-05      -2.35686749e-05 
      -6.78627892e-07       1.28806650e-05      -2.35686729e-05 
       1.96911487e-07       1.28806659e-05      -2.35686755e-05 
       6.76884787e-07       1.28806667e-05      -2.35686776e-05 
      -2.02157620e-07       1.35551938e-05      -2.47989634e-05 
      -6.90857915e-07       1.35551930e-05      -2.47989614e-05 
       2.00389818e-07       1.35551939e-05      -2.47989641e-05 
       6.89090111e-07       1.35551947e-05      -2.47989662e-05 
      -2.02157620e-07       1.35551938e-05      -2.47989634e-05 
      -6.90857915e-07       1.35551930e-05      -2.47989614e-05 
       2.00389818e-07       1.35551939e-05      -2.47989641e-05 
       6.89090111e-07       1.35551947e-05      -2.47989662e-05 
      -2.05550529e-07       1.42416932e-05      -2.60507922e-05 
      -7.02716454e-07       1.42416924e-05      -2.60507901e-05 
       2.03757678e-07       1.42416934e-05      -2.60507929e-05 
       7.00923604e-07       1.42416942e-05      -2.60507950e-05 
      -2.05550529e-07       1.42416932e-05      -2.60507922e-05 
      -7.02716454e-07       1.42416924e-05      -2.60507901e-05 
       2.03757678e-07       1.42416934e-05      -2.60507929e-05 
       7.00923604e-07       1.42416942e-05      -2.60507950e-05 
      -2.08833309e-07       1.49398001e-05      -2.73234899e-05 
      -7.14203505e-07       1.49397992e-05      -2.73234878e-05 
       2.07015074e-07       1.49398003e-05      -2.73234907e-05 
       7.12385271e-07       1.49398012e-05      -2.73234929e-05 
      -2.08833309e-07       1.49398001e-05      -2.73234899e-05 
      -7.14203505e-07       1.49397992e-05      -2.73234878e-05 
       2.07015074e-07       1.49398003e-05      -2.73234907e-05 
       7.12385271e-07       1.49398012e-05      -2.73234929e-05 
      -2.12005955e-07       1.56491504e-05      -2.86163856e-05 
      -7.25319062e-07       1.56491495e-05      -2.86163833e-05 
       2.10162010e-07       1.56491506e-05      -2.86163864e-05 
       7.23475117e-07       1.56491515e-05      -2.86163886e-05 
      -2.12005955e-07       1.56491504e-05      -2.86163856e-05 
      -7.25319062e-07       1.56491495e-05      -2.86163833e-05 