# vtk DataFile Version 2.0
./output/onsasExample_BladeCantileverBeamNoPitch_windVel3DDynamic 3D/onsasExample_BladeCantileverBeamNoPitch_windVel3DDynamic 3D_0284.vtk
ASCII
DATASET UNSTRUCTURED_GRID

POINTS 800 float
      -2.378881e-23      -7.180703e-02      -7.180703e-02 
      -6.588901e-24       7.180703e-02      -7.180703e-02 
       2.378881e-23       7.180703e-02       7.180703e-02 
       6.588901e-24      -7.180703e-02       7.180703e-02 
       2.000000e-01      -7.180702e-02      -7.180706e-02 
       2.000000e-01       7.180705e-02      -7.180706e-02 
       2.000000e-01       7.180705e-02       7.180700e-02 
       2.000000e-01      -7.180702e-02       7.180700e-02 
       2.000000e-01      -7.180702e-02      -7.180706e-02 
       2.000000e-01       7.180705e-02      -7.180706e-02 
       2.000000e-01       7.180705e-02       7.180700e-02 
       2.000000e-01      -7.180702e-02       7.180700e-02 
       4.000000e-01      -7.180698e-02      -7.180715e-02 
       3.999999e-01       7.180709e-02      -7.180715e-02 
       4.000000e-01       7.180709e-02       7.180692e-02 
       4.000001e-01      -7.180698e-02       7.180692e-02 
       4.000000e-01      -7.180698e-02      -7.180715e-02 
       3.999999e-01       7.180709e-02      -7.180715e-02 
       4.000000e-01       7.180709e-02       7.180692e-02 
       4.000001e-01      -7.180698e-02       7.180692e-02 
       6.000000e-01      -7.180691e-02      -7.180729e-02 
       5.999999e-01       7.180716e-02      -7.180729e-02 
       6.000000e-01       7.180716e-02       7.180678e-02 
       6.000001e-01      -7.180691e-02       7.180678e-02 
       6.000000e-01      -7.180691e-02      -7.180729e-02 
       5.999999e-01       7.180716e-02      -7.180729e-02 
       6.000000e-01       7.180716e-02       7.180678e-02 
       6.000001e-01      -7.180691e-02       7.180678e-02 
       8.000000e-01      -7.180681e-02      -7.180749e-02 
       7.999999e-01       7.180725e-02      -7.180749e-02 
       8.000000e-01       7.180725e-02       7.180658e-02 
       8.000001e-01      -7.180681e-02       7.180658e-02 
       8.000000e-01      -7.180681e-02      -7.180749e-02 
       7.999999e-01       7.180725e-02      -7.180749e-02 
       8.000000e-01       7.180725e-02       7.180658e-02 
       8.000001e-01      -7.180681e-02       7.180658e-02 
       9.999999e-01      -7.180669e-02      -7.180774e-02 
       9.999999e-01       7.180737e-02      -7.180774e-02 
       1.000000e+00       7.180737e-02       7.180633e-02 
       1.000000e+00      -7.180669e-02       7.180633e-02 
       9.999999e-01      -7.180669e-02      -7.180774e-02 
       9.999999e-01       7.180737e-02      -7.180774e-02 
       1.000000e+00       7.180737e-02       7.180633e-02 
       1.000000e+00      -7.180669e-02       7.180633e-02 
       1.200000e+00      -7.180655e-02      -7.180804e-02 
       1.200000e+00       7.180752e-02      -7.180804e-02 
       1.200000e+00       7.180752e-02       7.180602e-02 
       1.200000e+00      -7.180655e-02       7.180602e-02 
       1.200000e+00      -7.180655e-02      -7.180804e-02 
       1.200000e+00       7.180752e-02      -7.180804e-02 
       1.200000e+00       7.180752e-02       7.180602e-02 
       1.200000e+00      -7.180655e-02       7.180602e-02 
       1.400000e+00      -7.180638e-02      -7.180840e-02 
       1.400000e+00       7.180769e-02      -7.180840e-02 
       1.400000e+00       7.180769e-02       7.180567e-02 
       1.400000e+00      -7.180638e-02       7.180567e-02 
       1.400000e+00      -7.180638e-02      -7.180840e-02 
       1.400000e+00       7.180769e-02      -7.180840e-02 
       1.400000e+00       7.180769e-02       7.180567e-02 
       1.400000e+00      -7.180638e-02       7.180567e-02 
       1.600000e+00      -7.180618e-02      -7.180880e-02 
       1.600000e+00       7.180788e-02      -7.180880e-02 
       1.600000e+00       7.180788e-02       7.180526e-02 
       1.600000e+00      -7.180618e-02       7.180526e-02 
       1.600000e+00      -7.180618e-02      -7.180880e-02 
       1.600000e+00       7.180788e-02      -7.180880e-02 
       1.600000e+00       7.180788e-02       7.180526e-02 
       1.600000e+00      -7.180618e-02       7.180526e-02 
       1.800000e+00      -7.180596e-02      -7.180926e-02 
       1.800000e+00       7.180810e-02      -7.180926e-02 
       1.800000e+00       7.180810e-02       7.180481e-02 
       1.800000e+00      -7.180596e-02       7.180481e-02 
       1.800000e+00      -7.180596e-02      -7.180926e-02 
       1.800000e+00       7.180810e-02      -7.180926e-02 
       1.800000e+00       7.180810e-02       7.180481e-02 
       1.800000e+00      -7.180596e-02       7.180481e-02 
       2.000000e+00      -7.180572e-02      -7.180976e-02 
       2.000000e+00       7.180834e-02      -7.180976e-02 
       2.000000e+00       7.180834e-02       7.180430e-02 
       2.000000e+00      -7.180572e-02       7.180430e-02 
       2.000000e+00      -7.180572e-02      -7.180976e-02 
       2.000000e+00       7.180834e-02      -7.180976e-02 
       2.000000e+00       7.180834e-02       7.180430e-02 
       2.000000e+00      -7.180572e-02       7.180430e-02 
       2.200000e+00      -7.180546e-02      -7.181031e-02 
       2.200000e+00       7.180861e-02      -7.181031e-02 
       2.200000e+00       7.180861e-02       7.180375e-02 
       2.200000e+00      -7.180546e-02       7.180375e-02 
       2.200000e+00      -7.180546e-02      -7.181031e-02 
       2.200000e+00       7.180861e-02      -7.181031e-02 
       2.200000e+00       7.180861e-02       7.180375e-02 
       2.200000e+00      -7.180546e-02       7.180375e-02 
       2.400000e+00      -7.180517e-02      -7.181091e-02 
       2.400000e+00       7.180890e-02      -7.181091e-02 
       2.400000e+00       7.180890e-02       7.180315e-02 
       2.400000e+00      -7.180517e-02       7.180315e-02 
       2.400000e+00      -7.180517e-02      -7.181091e-02 
       2.400000e+00       7.180890e-02      -7.181091e-02 
       2.400000e+00       7.180890e-02       7.180315e-02 
       2.400000e+00      -7.180517e-02       7.180315e-02 
       2.600000e+00      -7.180486e-02      -7.181156e-02 
       2.600000e+00       7.180921e-02      -7.181156e-02 
       2.600000e+00       7.180921e-02       7.180251e-02 
       2.600000e+00      -7.180486e-02       7.180251e-02 
       2.600000e+00      -7.180486e-02      -7.181156e-02 
       2.600000e+00       7.180921e-02      -7.181156e-02 
       2.600000e+00       7.180921e-02       7.180251e-02 
       2.600000e+00      -7.180486e-02       7.180251e-02 
       2.800000e+00      -7.180453e-02      -7.181225e-02 
       2.800000e+00       7.180954e-02      -7.181225e-02 
       2.800000e+00       7.180954e-02       7.180182e-02 
       2.800000e+00      -7.180453e-02       7.180182e-02 
       2.800000e+00      -7.180453e-02      -7.181225e-02 
       2.800000e+00       7.180954e-02      -7.181225e-02 
       2.800000e+00       7.180954e-02       7.180182e-02 
       2.800000e+00      -7.180453e-02       7.180182e-02 
       3.000000e+00      -7.180418e-02      -7.181298e-02 
       3.000000e+00       7.180989e-02      -7.181298e-02 
       3.000000e+00       7.180989e-02       7.180109e-02 
       3.000000e+00      -7.180418e-02       7.180109e-02 
       3.000000e+00      -7.180418e-02      -7.181298e-02 
       3.000000e+00       7.180989e-02      -7.181298e-02 
       3.000000e+00       7.180989e-02       7.180109e-02 
       3.000000e+00      -7.180418e-02       7.180109e-02 
       3.200000e+00      -7.180381e-02      -7.181375e-02 
       3.200000e+00       7.181026e-02      -7.181375e-02 
       3.200000e+00       7.181026e-02       7.180031e-02 
       3.200000e+00      -7.180381e-02       7.180031e-02 
       3.200000e+00      -7.180381e-02      -7.181375e-02 
       3.200000e+00       7.181026e-02      -7.181375e-02 
       3.200000e+00       7.181026e-02       7.180031e-02 
       3.200000e+00      -7.180381e-02       7.180031e-02 
       3.400000e+00      -7.180342e-02      -7.181457e-02 
       3.400000e+00       7.181065e-02      -7.181457e-02 
       3.400000e+00       7.181065e-02       7.179950e-02 
       3.400000e+00      -7.180342e-02       7.179950e-02 
       3.400000e+00      -7.180342e-02      -7.181457e-02 
       3.400000e+00       7.181065e-02      -7.181457e-02 
       3.400000e+00       7.181065e-02       7.179950e-02 
       3.400000e+00      -7.180342e-02       7.179950e-02 
       3.600000e+00      -7.180301e-02      -7.181543e-02 
       3.600000e+00       7.181106e-02      -7.181543e-02 
       3.600000e+00       7.181106e-02       7.179864e-02 
       3.600000e+00      -7.180301e-02       7.179864e-02 
       3.600000e+00      -7.180301e-02      -7.181543e-02 
       3.600000e+00       7.181106e-02      -7.181543e-02 
       3.600000e+00       7.181106e-02       7.179864e-02 
       3.600000e+00      -7.180301e-02       7.179864e-02 
       3.800000e+00      -7.180258e-02      -7.181632e-02 
       3.800000e+00       7.181149e-02      -7.181632e-02 
       3.800000e+00       7.181149e-02       7.179774e-02 
       3.800000e+00      -7.180258e-02       7.179774e-02 
       3.800000e+00      -7.180258e-02      -7.181632e-02 
       3.800000e+00       7.181149e-02      -7.181632e-02 
       3.800000e+00       7.181149e-02       7.179774e-02 
       3.800000e+00      -7.180258e-02       7.179774e-02 
       4.000000e+00      -7.180213e-02      -7.181726e-02 
       3.999999e+00       7.181194e-02      -7.181726e-02 
       4.000000e+00       7.181194e-02       7.179681e-02 
       4.000001e+00      -7.180213e-02       7.179681e-02 
       4.000000e+00      -7.180213e-02      -7.181726e-02 
       3.999999e+00       7.181194e-02      -7.181726e-02 
       4.000000e+00       7.181194e-02       7.179681e-02 
       4.000001e+00      -7.180213e-02       7.179681e-02 
       4.200000e+00      -7.180166e-02      -7.181823e-02 
[...]
POINT_DATA       800 
VECTORS Displacements float
      -2.37888139e-23       1.38777878e-17       0.00000000e+00 
      -6.58890137e-24      -1.38777878e-17       0.00000000e+00 
       2.37888139e-23      -1.38777878e-17       0.00000000e+00 
       6.58890137e-24       1.38777878e-17       0.00000000e+00 
      -1.07717676e-08       1.39102858e-08      -2.88980294e-08 
      -3.06856873e-08       1.39102844e-08      -2.88979910e-08 
       1.06884738e-08       1.39102518e-08      -2.88979970e-08 
       3.06023934e-08       1.39102532e-08      -2.88980354e-08 
      -1.07717676e-08       1.39102858e-08      -2.88980294e-08 
      -3.06856873e-08       1.39102844e-08      -2.88979910e-08 
       1.06884738e-08       1.39102518e-08      -2.88979970e-08 
       3.06023934e-08       1.39102532e-08      -2.88980354e-08 
      -2.13508282e-08       5.52891477e-08      -1.14882120e-07 
      -6.07995693e-08       5.52891423e-08      -1.14882038e-07 
       2.11840485e-08       5.52890825e-08      -1.14882061e-07 
       6.06327896e-08       5.52890880e-08      -1.14882143e-07 
      -2.13508282e-08       5.52891477e-08      -1.14882120e-07 
      -6.07995693e-08       5.52891423e-08      -1.14882038e-07 
       2.11840485e-08       5.52890825e-08      -1.14882061e-07 
       6.06327896e-08       5.52890880e-08      -1.14882143e-07 
      -3.17371798e-08       1.23608646e-07      -2.56887328e-07 
      -9.03416441e-08       1.23608634e-07      -2.56887196e-07 
       3.14867261e-08       1.23608552e-07      -2.56887248e-07 
       9.00911904e-08       1.23608564e-07      -2.56887380e-07 
      -3.17371798e-08       1.23608646e-07      -2.56887328e-07 
      -9.03416441e-08       1.23608634e-07      -2.56887196e-07 
       3.14867261e-08       1.23608552e-07      -2.56887248e-07 
       9.00911904e-08       1.23608564e-07      -2.56887380e-07 
      -4.19308206e-08       2.18340839e-07      -4.53848710e-07 
      -1.19311910e-07       2.18340818e-07      -4.53848525e-07 
       4.15965082e-08       2.18340719e-07      -4.53848615e-07 
       1.18977597e-07       2.18340740e-07      -4.53848800e-07 
      -4.19308206e-08       2.18340839e-07      -4.53848710e-07 
      -1.19311910e-07       2.18340818e-07      -4.53848525e-07 
       4.15965082e-08       2.18340719e-07      -4.53848615e-07 
       1.18977597e-07       2.18340740e-07      -4.53848800e-07 
      -5.19317488e-08       3.38957788e-07      -7.04701323e-07 
      -1.47710365e-07       3.38957756e-07      -7.04701079e-07 
       5.15133967e-08       3.38957645e-07      -7.04701217e-07 
       1.47292012e-07       3.38957677e-07      -7.04701461e-07 
      -5.19317488e-08       3.38957788e-07      -7.04701323e-07 
      -1.47710365e-07       3.38957756e-07      -7.04701079e-07 
       5.15133967e-08       3.38957645e-07      -7.04701217e-07 
       1.47292012e-07       3.38957677e-07      -7.04701461e-07 
      -6.17399627e-08       4.84931553e-07      -1.00838022e-06 
      -1.75537007e-07       4.84931507e-07      -1.00837992e-06 
       6.12373934e-08       4.84931388e-07      -1.00838011e-06 
       1.75034438e-07       4.84931433e-07      -1.00838042e-06 
      -6.17399627e-08       4.84931553e-07      -1.00838022e-06 
      -1.75537007e-07       4.84931507e-07      -1.00837992e-06 
       6.12373934e-08       4.84931388e-07      -1.00838011e-06 
       1.75034438e-07       4.84931433e-07      -1.00838042e-06 
      -7.13554604e-08       6.55734192e-07      -1.36382047e-06 
      -2.02791835e-07       6.55734132e-07      -1.36382009e-06 
       7.07684999e-08       6.55734009e-07      -1.36382035e-06 
       2.02204875e-07       6.55734069e-07      -1.36382073e-06 
      -7.13554604e-08       6.55734192e-07      -1.36382047e-06 
      -2.02791835e-07       6.55734132e-07      -1.36382009e-06 
       7.07684999e-08       6.55734009e-07      -1.36382035e-06 
       2.02204875e-07       6.55734069e-07      -1.36382073e-06 
      -8.07782403e-08       8.50837767e-07      -1.76995711e-06 
      -2.29474847e-07       8.50837690e-07      -1.76995667e-06 
       8.01067181e-08       8.50837566e-07      -1.76995700e-06 
       2.28803325e-07       8.50837643e-07      -1.76995744e-06 
      -8.07782403e-08       8.50837767e-07      -1.76995711e-06 
      -2.29474847e-07       8.50837690e-07      -1.76995667e-06 
       8.01067181e-08       8.50837566e-07      -1.76995700e-06 
       2.28803325e-07       8.50837643e-07      -1.76995744e-06 
      -9.00083004e-08       1.06971434e-06      -2.22572521e-06 
      -2.55586041e-07       1.06971424e-06      -2.22572469e-06 
       8.92520500e-08       1.06971412e-06      -2.22572511e-06 
       2.54829790e-07       1.06971422e-06      -2.22572563e-06 
      -9.00083004e-08       1.06971434e-06      -2.22572521e-06 
      -2.55586041e-07       1.06971424e-06      -2.22572469e-06 
       8.92520500e-08       1.06971412e-06      -2.22572511e-06 
       2.54829790e-07       1.06971422e-06      -2.22572563e-06 
      -9.90456388e-08       1.31183596e-06      -2.73005983e-06 
      -2.81125415e-07       1.31183585e-06      -2.73005923e-06 
       9.82044974e-08       1.31183573e-06      -2.73005973e-06 
       2.80284273e-07       1.31183585e-06      -2.73006033e-06 
      -9.90456388e-08       1.31183596e-06      -2.73005983e-06 
      -2.81125415e-07       1.31183585e-06      -2.73005923e-06 
       9.82044974e-08       1.31183573e-06      -2.73005973e-06 
       2.80284274e-07       1.31183585e-06      -2.73006033e-06 
      -1.07883523e-07       1.57668405e-06      -3.28191322e-06 
      -3.06106231e-07       1.57668391e-06      -3.28191256e-06 
       1.06987577e-07       1.57668382e-06      -3.28191316e-06 
       3.05210285e-07       1.57668396e-06      -3.28191382e-06 
      -1.07883523e-07       1.57668405e-06      -3.28191322e-06 
      -3.06106231e-07       1.57668391e-06      -3.28191256e-06 
       1.06987577e-07       1.57668382e-06      -3.28191316e-06 
       3.05210285e-07       1.57668396e-06      -3.28191382e-06 
      -1.16545305e-07       1.86377654e-06      -3.88030481e-06 
      -3.30571173e-07       1.86377638e-06      -3.88030408e-06 
       1.15594126e-07       1.86377632e-06      -3.88030477e-06 
       3.29619994e-07       1.86377648e-06      -3.88030550e-06 
      -1.16545305e-07       1.86377654e-06      -3.88030481e-06 
      -3.30571173e-07       1.86377638e-06      -3.88030408e-06 
       1.15594126e-07       1.86377632e-06      -3.88030477e-06 
       3.29619994e-07       1.86377648e-06      -3.88030550e-06 
      -1.25030980e-07       2.17264026e-06      -4.52427032e-06 
      -3.54520236e-07       2.17264008e-06      -4.52426952e-06 
       1.24024147e-07       2.17264004e-06      -4.52427032e-06 
       3.53513403e-07       2.17264023e-06      -4.52427112e-06 
      -1.25030980e-07       2.17264026e-06      -4.52427032e-06 
      -3.54520236e-07       2.17264008e-06      -4.52426952e-06 
       1.24024147e-07       2.17264004e-06      -4.52427032e-06 
       3.53513403e-07       2.17264023e-06      -4.52427112e-06 
      -1.33340543e-07       2.50280204e-06      -5.21284550e-06 
      -3.77953415e-07       2.50280183e-06      -5.21284463e-06 
       1.32277646e-07       2.50280183e-06      -5.21284554e-06 
       3.76890518e-07       2.50280204e-06      -5.21284641e-06 
      -1.33340543e-07       2.50280204e-06      -5.21284550e-06 
      -3.77953415e-07       2.50280183e-06      -5.21284463e-06 
       1.32277646e-07       2.50280183e-06      -5.21284554e-06 
       3.76890518e-07       2.50280204e-06      -5.21284641e-06 
      -1.41473991e-07       2.85378870e-06      -5.94506610e-06 
      -4.00870707e-07       2.85378847e-06      -5.94506515e-06 
       1.40354627e-07       2.85378849e-06      -5.94506617e-06 
       3.99751344e-07       2.85378873e-06      -5.94506712e-06 
      -1.41473991e-07       2.85378870e-06      -5.94506610e-06 
      -4.00870707e-07       2.85378847e-06      -5.94506515e-06 
       1.40354627e-07       2.85378849e-06      -5.94506617e-06 
       3.99751344e-07       2.85378873e-06      -5.94506712e-06 
      -1.49431318e-07       3.22512707e-06      -6.71996785e-06 
      -4.23272107e-07       3.22512681e-06      -6.71996682e-06 
       1.48255094e-07       3.22512687e-06      -6.71996796e-06 
       4.22095884e-07       3.22512713e-06      -6.71996898e-06 
      -1.49431318e-07       3.22512707e-06      -6.71996785e-06 
      -4.23272107e-07       3.22512681e-06      -6.71996682e-06 
       1.48255094e-07       3.22512687e-06      -6.71996796e-06 
       4.22095884e-07       3.22512713e-06      -6.71996898e-06 
      -1.57212519e-07       3.61634397e-06      -7.53658649e-06 
      -4.45157609e-07       3.61634368e-06      -7.53658538e-06 
       1.55979052e-07       3.61634378e-06      -7.53658664e-06 
       4.43924142e-07       3.61634407e-06      -7.53658774e-06 
      -1.57212519e-07       3.61634397e-06      -7.53658649e-06 
      -4.45157609e-07       3.61634368e-06      -7.53658538e-06 
       1.55979052e-07       3.61634378e-06      -7.53658664e-06 
       4.43924142e-07       3.61634407e-06      -7.53658774e-06 
      -1.64817592e-07       4.02696623e-06      -8.39395776e-06 
      -4.66527210e-07       4.02696592e-06      -8.39395657e-06 
       1.63526507e-07       4.02696605e-06      -8.39395796e-06 
       4.65236125e-07       4.02696637e-06      -8.39395914e-06 
      -1.64817592e-07       4.02696623e-06      -8.39395776e-06 
      -4.66527210e-07       4.02696592e-06      -8.39395657e-06 
       1.63526507e-07       4.02696605e-06      -8.39395796e-06 
       4.65236125e-07       4.02696637e-06      -8.39395914e-06 
      -1.72246530e-07       4.45652069e-06      -9.29111741e-06 
      -4.87380906e-07       4.45652034e-06      -9.29111614e-06 
       1.70897460e-07       4.45652052e-06      -9.29111765e-06 
       4.86031836e-07       4.45652086e-06      -9.29111892e-06 
      -1.72246530e-07       4.45652069e-06      -9.29111741e-06 
      -4.87380906e-07       4.45652034e-06      -9.29111614e-06 
       1.70897460e-07       4.45652052e-06      -9.29111765e-06 
       4.86031836e-07       4.45652086e-06      -9.29111892e-06 
      -1.79499331e-07       4.90453415e-06      -1.02271012e-05 
      -5.07718692e-07       4.90453378e-06      -1.02270998e-05 
       1.78091918e-07       4.90453399e-06      -1.02271015e-05 
       5.06311279e-07       4.90453437e-06      -1.02271028e-05 
      -1.79499331e-07       4.90453415e-06      -1.02271012e-05 
      -5.07718692e-07       4.90453378e-06      -1.02270998e-05 
       1.78091917e-07       4.90453399e-06      -1.02271015e-05 
       5.06311278e-07       4.90453437e-06      -1.02271028e-05 
      -1.86573130e-07       5.37054253e-06      -1.12009609e-05 
      -5.27557256e-07       5.37054213e-06      -1.12009595e-05 
       1.85128473e-07       5.37054239e-06      -1.12009612e-05 
       5.26112598e-07       5.37054280e-06      -1.12009627e-05 
      -1.86573130e-07       5.37054253e-06      -1.12009609e-05 
      -5.27557256e-07       5.37054213e-06      -1.12009595e-05 
       1.85128473e-07       5.37054239e-06      -1.12009612e-05 
       5.26112598e-07       5.37054280e-06      -1.12009627e-05 
      -1.93487737e-07       5.85411804e-06      -1.22118161e-05 
      -5.46935965e-07       5.85411760e-06      -1.22118146e-05 
       1.92005323e-07       5.85411792e-06      -1.22118165e-05 
       5.45453551e-07       5.85411836e-06      -1.22118180e-05 
      -1.93487737e-07       5.85411804e-06      -1.22118161e-05 
      -5.46935965e-07       5.85411760e-06      -1.22118146e-05 
       1.92005323e-07       5.85411792e-06      -1.22118165e-05 
       5.45453551e-07       5.85411836e-06      -1.22118180e-05 
      -2.00243144e-07       6.35484197e-06      -1.32588039e-05 
      -5.65854814e-07       6.35484150e-06      -1.32588023e-05 
       1.98722474e-07       6.35484187e-06      -1.32588044e-05 
       5.64334144e-07       6.35484234e-06      -1.32588060e-05 
      -2.00243144e-07       6.35484197e-06      -1.32588039e-05 
      -5.65854814e-07       6.35484150e-06      -1.32588023e-05 
       1.98722474e-07       6.35484187e-06      -1.32588044e-05 
       5.64334144e-07       6.35484234e-06      -1.32588060e-05 
      -2.06839348e-07       6.87229561e-06      -1.43410616e-05 
      -5.84313796e-07       6.87229511e-06      -1.43410599e-05 
       2.05279932e-07       6.87229553e-06      -1.43410621e-05 
       5.82754380e-07       6.87229603e-06      -1.43410637e-05 
      -2.06839348e-07       6.87229561e-06      -1.43410616e-05 
      -5.84313796e-07       6.87229511e-06      -1.43410599e-05 
       2.05279932e-07       6.87229553e-06      -1.43410621e-05 
       5.82754380e-07       6.87229603e-06      -1.43410637e-05 
      -2.13276341e-07       7.40606025e-06      -1.54577263e-05 
      -6.02312907e-07       7.40605972e-06      -1.54577245e-05 
       2.11677701e-07       7.40606020e-06      -1.54577268e-05 
       6.00714268e-07       7.40606073e-06      -1.54577286e-05 
      -2.13276341e-07       7.40606025e-06      -1.54577263e-05 
      -6.02312907e-07       7.40605972e-06      -1.54577245e-05 
       2.11677701e-07       7.40606020e-06      -1.54577268e-05 
       6.00714268e-07       7.40606073e-06      -1.54577286e-05 
      -2.19554119e-07       7.95571719e-06      -1.66079351e-05 
      -6.19852140e-07       7.95571663e-06      -1.66079333e-05 
       2.17915790e-07       7.95571716e-06      -1.66079358e-05 
       6.18213812e-07       7.95571772e-06      -1.66079376e-05 
      -2.19554119e-07       7.95571719e-06      -1.66079351e-05 
      -6.19852140e-07       7.95571663e-06      -1.66079333e-05 
       2.17915790e-07       7.95571716e-06      -1.66079358e-05 
       6.18213812e-07       7.95571772e-06      -1.66079376e-05 
      -2.25672673e-07       8.52084772e-06      -1.77908254e-05 
      -6.36931489e-07       8.52084713e-06      -1.77908236e-05 
       2.23994204e-07       8.52084771e-06      -1.77908261e-05 
       6.35253018e-07       8.52084830e-06      -1.77908280e-05 
      -2.25672673e-07       8.52084772e-06      -1.77908254e-05 
      -6.36931489e-07       8.52084713e-06      -1.77908236e-05 
       2.23994204e-07       8.52084771e-06      -1.77908261e-05 
       6.35253018e-07       8.52084830e-06      -1.77908280e-05 
      -2.31631998e-07       9.10103313e-06      -1.90055343e-05 
      -6.53550945e-07       9.10103251e-06      -1.90055323e-05 
       2.29912949e-07       9.10103314e-06      -1.90055351e-05 
       6.51831896e-07       9.10103376e-06      -1.90055370e-05 
      -2.31631998e-07       9.10103313e-06      -1.90055343e-05 
      -6.53550945e-07       9.10103251e-06      -1.90055323e-05 
       2.29912949e-07       9.10103314e-06      -1.90055351e-05 
       6.51831896e-07       9.10103376e-06      -1.90055370e-05 
      -2.37432090e-07       9.69585471e-06      -2.02511990e-05 
      -6.69710507e-07       9.69585406e-06      -2.02511969e-05 
       2.35672029e-07       9.69585475e-06      -2.02511998e-05 
       6.67950447e-07       9.69585540e-06      -2.02512018e-05 
      -2.37432090e-07       9.69585471e-06      -2.02511990e-05 
      -6.69710507e-07       9.69585406e-06      -2.02511969e-05 
       2.35672029e-07       9.69585475e-06      -2.02511998e-05 
       6.67950447e-07       9.69585540e-06      -2.02512018e-05 
      -2.43072941e-07       1.03048938e-05      -2.15269566e-05 
      -6.85410167e-07       1.03048931e-05      -2.15269544e-05 
       2.41271453e-07       1.03048938e-05      -2.15269574e-05 
       6.83608679e-07       1.03048945e-05      -2.15269595e-05 
      -2.43072941e-07       1.03048938e-05      -2.15269566e-05 
      -6.85410167e-07       1.03048931e-05      -2.15269544e-05 
       2.41271453e-07       1.03048938e-05      -2.15269574e-05 
       6.83608678e-07       1.03048945e-05      -2.15269595e-05 
      -2.48555459e-07       1.09277406e-05      -2.28319605e-05 
      -7.00670303e-07       1.09277398e-05      -2.28319583e-05 
       2.46726597e-07       1.09277406e-05      -2.28319614e-05 
       6.98841441e-07       1.09277414e-05      -2.28319636e-05 
      -2.48555459e-07       1.09277406e-05      -2.28319605e-05 
      -7.00670303e-07       1.09277398e-05      -2.28319583e-05 
       2.46726597e-07       1.09277406e-05      -2.28319614e-05 
       6.98841441e-07       1.09277414e-05      -2.28319636e-05 
      -2.53896745e-07       1.15640219e-05      -2.41654339e-05 
      -7.15527790e-07       1.15640211e-05      -2.41654316e-05 
       2.52040015e-07       1.15640220e-05      -2.41654349e-05 
       7.13671058e-07       1.15640227e-05      -2.41654372e-05 
      -2.53896745e-07       1.15640219e-05      -2.41654339e-05 
      -7.15527790e-07       1.15640211e-05      -2.41654316e-05 
       2.52040015e-07       1.15640220e-05      -2.41654349e-05 
       7.13671058e-07       1.15640227e-05      -2.41654372e-05 
      -2.59096794e-07       1.22133736e-05      -2.55266187e-05 
      -7.29982620e-07       1.22133728e-05      -2.55266164e-05 
       2.57211711e-07       1.22133737e-05      -2.55266198e-05 
       7.28097537e-07       1.22133745e-05      -2.55266221e-05 
      -2.59096794e-07       1.22133736e-05      -2.55266187e-05 
      -7.29982620e-07       1.22133728e-05      -2.55266164e-05 
       2.57211711e-07       1.22133737e-05      -2.55266198e-05 
       7.28097537e-07       1.22133745e-05      -2.55266221e-05 
      -2.64155598e-07       1.28754317e-05      -2.69147567e-05 
      -7.44034788e-07       1.28754309e-05      -2.69147543e-05 
       2.62241692e-07       1.28754319e-05      -2.69147579e-05 
       7.42120883e-07       1.28754327e-05      -2.69147603e-05 
      -2.64155598e-07       1.28754317e-05      -2.69147567e-05 
      -7.44034788e-07       1.28754309e-05      -2.69147543e-05 
       2.62241692e-07       1.28754319e-05      -2.69147579e-05 
       7.42120883e-07       1.28754327e-05      -2.69147603e-05 
      -2.69073151e-07       1.35498321e-05      -2.83290899e-05 
      -7.57684289e-07       1.35498313e-05      -2.83290875e-05 
       2.67129965e-07       1.35498323e-05      -2.83290911e-05 
       7.55741102e-07       1.35498331e-05      -2.83290936e-05 
      -2.69073151e-07       1.35498321e-05      -2.83290899e-05 
      -7.57684289e-07       1.35498313e-05      -2.83290875e-05 
       2.67129965e-07       1.35498323e-05      -2.83290911e-05 
       7.55741102e-07       1.35498331e-05      -2.83290936e-05 
      -2.73849447e-07       1.42362108e-05      -2.97688602e-05 
      -7.70931113e-07       1.42362099e-05      -2.97688576e-05 
       2.71876537e-07       1.42362110e-05      -2.97688614e-05 
       7.68958203e-07       1.42362119e-05      -2.97688640e-05 
      -2.73849447e-07       1.42362108e-05      -2.97688602e-05 
      -7.70931113e-07       1.42362099e-05      -2.97688576e-05 
       2.71876537e-07       1.42362110e-05      -2.97688614e-05 
       7.68958203e-07       1.42362119e-05      -2.97688640e-05 
      -2.78484478e-07       1.49342037e-05      -3.12333093e-05 
      -7.83775254e-07       1.49342028e-05      -3.12333068e-05 
       2.76481414e-07       1.49342040e-05      -3.12333107e-05 
       7.81772191e-07       1.49342048e-05      -3.12333133e-05 
      -2.78484478e-07       1.49342037e-05      -3.12333093e-05 
      -7.83775254e-07       1.49342028e-05      -3.12333068e-05 
       2.76481414e-07       1.49342040e-05      -3.12333107e-05 
       7.81772191e-07       1.49342048e-05      -3.12333133e-05 
      -2.82978236e-07       1.56434468e-05      -3.27216793e-05 
      -7.96216707e-07       1.56434459e-05      -3.27216767e-05 
       2.80944604e-07       1.56434470e-05      -3.27216807e-05 
       7.94183074e-07       1.56434480e-05      -3.27216834e-05 
      -2.82978236e-07       1.56434468e-05      -3.27216793e-05 
      -7.96216707e-07       1.56434459e-05      -3.27216767e-05 