# vtk DataFile Version 2.0
./output/onsasExample_BladeCantileverBeamNoPitch_windVel3DDynamic 3D/onsasExample_BladeCantileverBeamNoPitch_windVel3DDynamic 3D_0386.vtk
ASCII
DATASET UNSTRUCTURED_GRID

POINTS 800 float
       7.784988e-24      -7.180703e-02      -7.180703e-02 
       1.430071e-23       7.180703e-02      -7.180703e-02 
      -7.784988e-24       7.180703e-02       7.180703e-02 
      -1.430071e-23      -7.180703e-02       7.180703e-02 
       2.000000e-01      -7.180702e-02      -7.180706e-02 
       2.000000e-01       7.180705e-02      -7.180706e-02 
       2.000000e-01       7.180705e-02       7.180700e-02 
       2.000000e-01      -7.180702e-02       7.180700e-02 
       2.000000e-01      -7.180702e-02      -7.180706e-02 
       2.000000e-01       7.180705e-02      -7.180706e-02 
       2.000000e-01       7.180705e-02       7.180700e-02 
       2.000000e-01      -7.180702e-02       7.180700e-02 
       4.000000e-01      -7.180698e-02      -7.180715e-02 
       3.999999e-01       7.180709e-02      -7.180715e-02 
       4.000000e-01       7.180709e-02       7.180692e-02 
       4.000001e-01      -7.180698e-02       7.180692e-02 
       4.000000e-01      -7.180698e-02      -7.180715e-02 
       3.999999e-01       7.180709e-02      -7.180715e-02 
       4.000000e-01       7.180709e-02       7.180692e-02 
       4.000001e-01      -7.180698e-02       7.180692e-02 
       6.000000e-01      -7.180691e-02      -7.180729e-02 
       5.999999e-01       7.180715e-02      -7.180729e-02 
       6.000000e-01       7.180715e-02       7.180678e-02 
       6.000001e-01      -7.180691e-02       7.180678e-02 
       6.000000e-01      -7.180691e-02      -7.180729e-02 
       5.999999e-01       7.180715e-02      -7.180729e-02 
       6.000000e-01       7.180715e-02       7.180678e-02 
       6.000001e-01      -7.180691e-02       7.180678e-02 
       8.000000e-01      -7.180682e-02      -7.180748e-02 
       7.999999e-01       7.180725e-02      -7.180748e-02 
       8.000000e-01       7.180725e-02       7.180659e-02 
       8.000001e-01      -7.180682e-02       7.180659e-02 
       8.000000e-01      -7.180682e-02      -7.180748e-02 
       7.999999e-01       7.180725e-02      -7.180748e-02 
       8.000000e-01       7.180725e-02       7.180659e-02 
       8.000001e-01      -7.180682e-02       7.180659e-02 
       9.999999e-01      -7.180670e-02      -7.180773e-02 
       9.999999e-01       7.180737e-02      -7.180773e-02 
       1.000000e+00       7.180737e-02       7.180634e-02 
       1.000000e+00      -7.180670e-02       7.180634e-02 
       9.999999e-01      -7.180670e-02      -7.180773e-02 
       9.999999e-01       7.180737e-02      -7.180773e-02 
       1.000000e+00       7.180737e-02       7.180634e-02 
       1.000000e+00      -7.180670e-02       7.180634e-02 
       1.200000e+00      -7.180656e-02      -7.180803e-02 
       1.200000e+00       7.180751e-02      -7.180803e-02 
       1.200000e+00       7.180751e-02       7.180604e-02 
       1.200000e+00      -7.180656e-02       7.180604e-02 
       1.200000e+00      -7.180656e-02      -7.180803e-02 
       1.200000e+00       7.180751e-02      -7.180803e-02 
       1.200000e+00       7.180751e-02       7.180604e-02 
       1.200000e+00      -7.180656e-02       7.180604e-02 
       1.400000e+00      -7.180639e-02      -7.180838e-02 
       1.400000e+00       7.180768e-02      -7.180838e-02 
       1.400000e+00       7.180768e-02       7.180569e-02 
       1.400000e+00      -7.180639e-02       7.180569e-02 
       1.400000e+00      -7.180639e-02      -7.180838e-02 
       1.400000e+00       7.180768e-02      -7.180838e-02 
       1.400000e+00       7.180768e-02       7.180569e-02 
       1.400000e+00      -7.180639e-02       7.180569e-02 
       1.600000e+00      -7.180620e-02      -7.180878e-02 
       1.600000e+00       7.180787e-02      -7.180878e-02 
       1.600000e+00       7.180787e-02       7.180529e-02 
       1.600000e+00      -7.180620e-02       7.180529e-02 
       1.600000e+00      -7.180620e-02      -7.180878e-02 
       1.600000e+00       7.180787e-02      -7.180878e-02 
       1.600000e+00       7.180787e-02       7.180529e-02 
       1.600000e+00      -7.180620e-02       7.180529e-02 
       1.800000e+00      -7.180598e-02      -7.180923e-02 
       1.800000e+00       7.180808e-02      -7.180923e-02 
       1.800000e+00       7.180808e-02       7.180484e-02 
       1.800000e+00      -7.180598e-02       7.180484e-02 
       1.800000e+00      -7.180598e-02      -7.180923e-02 
       1.800000e+00       7.180808e-02      -7.180923e-02 
       1.800000e+00       7.180808e-02       7.180484e-02 
       1.800000e+00      -7.180598e-02       7.180484e-02 
       2.000000e+00      -7.180574e-02      -7.180972e-02 
       2.000000e+00       7.180832e-02      -7.180972e-02 
       2.000000e+00       7.180832e-02       7.180434e-02 
       2.000000e+00      -7.180574e-02       7.180434e-02 
       2.000000e+00      -7.180574e-02      -7.180972e-02 
       2.000000e+00       7.180832e-02      -7.180972e-02 
       2.000000e+00       7.180832e-02       7.180434e-02 
       2.000000e+00      -7.180574e-02       7.180434e-02 
       2.200000e+00      -7.180548e-02      -7.181027e-02 
       2.200000e+00       7.180858e-02      -7.181027e-02 
       2.200000e+00       7.180858e-02       7.180380e-02 
       2.200000e+00      -7.180548e-02       7.180380e-02 
       2.200000e+00      -7.180548e-02      -7.181027e-02 
       2.200000e+00       7.180858e-02      -7.181027e-02 
       2.200000e+00       7.180858e-02       7.180380e-02 
       2.200000e+00      -7.180548e-02       7.180380e-02 
       2.400000e+00      -7.180520e-02      -7.181085e-02 
       2.400000e+00       7.180886e-02      -7.181085e-02 
       2.400000e+00       7.180886e-02       7.180321e-02 
       2.400000e+00      -7.180520e-02       7.180321e-02 
       2.400000e+00      -7.180520e-02      -7.181085e-02 
       2.400000e+00       7.180886e-02      -7.181085e-02 
       2.400000e+00       7.180886e-02       7.180321e-02 
       2.400000e+00      -7.180520e-02       7.180321e-02 
       2.600000e+00      -7.180490e-02      -7.181149e-02 
       2.600000e+00       7.180917e-02      -7.181149e-02 
       2.600000e+00       7.180917e-02       7.180258e-02 
       2.600000e+00      -7.180490e-02       7.180258e-02 
       2.600000e+00      -7.180490e-02      -7.181149e-02 
       2.600000e+00       7.180917e-02      -7.181149e-02 
       2.600000e+00       7.180917e-02       7.180258e-02 
       2.600000e+00      -7.180490e-02       7.180258e-02 
       2.800000e+00      -7.180458e-02      -7.181217e-02 
       2.800000e+00       7.180949e-02      -7.181217e-02 
       2.800000e+00       7.180949e-02       7.180190e-02 
       2.800000e+00      -7.180458e-02       7.180190e-02 
       2.800000e+00      -7.180458e-02      -7.181217e-02 
       2.800000e+00       7.180949e-02      -7.181217e-02 
       2.800000e+00       7.180949e-02       7.180190e-02 
       2.800000e+00      -7.180458e-02       7.180190e-02 
       3.000000e+00      -7.180423e-02      -7.181289e-02 
       3.000000e+00       7.180983e-02      -7.181289e-02 
       3.000000e+00       7.180983e-02       7.180118e-02 
       3.000000e+00      -7.180423e-02       7.180118e-02 
       3.000000e+00      -7.180423e-02      -7.181289e-02 
       3.000000e+00       7.180983e-02      -7.181289e-02 
       3.000000e+00       7.180983e-02       7.180118e-02 
       3.000000e+00      -7.180423e-02       7.180118e-02 
       3.200000e+00      -7.180387e-02      -7.181365e-02 
       3.200000e+00       7.181020e-02      -7.181365e-02 
       3.200000e+00       7.181020e-02       7.180041e-02 
       3.200000e+00      -7.180387e-02       7.180041e-02 
       3.200000e+00      -7.180387e-02      -7.181365e-02 
       3.200000e+00       7.181020e-02      -7.181365e-02 
       3.200000e+00       7.181020e-02       7.180041e-02 
       3.200000e+00      -7.180387e-02       7.180041e-02 
       3.400000e+00      -7.180348e-02      -7.181446e-02 
       3.400000e+00       7.181058e-02      -7.181446e-02 
       3.400000e+00       7.181058e-02       7.179961e-02 
       3.400000e+00      -7.180348e-02       7.179961e-02 
       3.400000e+00      -7.180348e-02      -7.181446e-02 
       3.400000e+00       7.181058e-02      -7.181446e-02 
       3.400000e+00       7.181058e-02       7.179961e-02 
       3.400000e+00      -7.180348e-02       7.179961e-02 
       3.600000e+00      -7.180308e-02      -7.181530e-02 
       3.600000e+00       7.181099e-02      -7.181530e-02 
       3.600000e+00       7.181099e-02       7.179877e-02 
       3.600000e+00      -7.180308e-02       7.179877e-02 
       3.600000e+00      -7.180308e-02      -7.181530e-02 
       3.600000e+00       7.181099e-02      -7.181530e-02 
       3.600000e+00       7.181099e-02       7.179877e-02 
       3.600000e+00      -7.180308e-02       7.179877e-02 
       3.800000e+00      -7.180266e-02      -7.181618e-02 
       3.800000e+00       7.181141e-02      -7.181618e-02 
       3.800000e+00       7.181141e-02       7.179788e-02 
       3.800000e+00      -7.180266e-02       7.179788e-02 
       3.800000e+00      -7.180266e-02      -7.181618e-02 
       3.800000e+00       7.181141e-02      -7.181618e-02 
       3.800000e+00       7.181141e-02       7.179788e-02 
       3.800000e+00      -7.180266e-02       7.179788e-02 
       4.000000e+00      -7.180222e-02      -7.181710e-02 
       4.000000e+00       7.181185e-02      -7.181710e-02 
       4.000000e+00       7.181185e-02       7.179696e-02 
       4.000000e+00      -7.180222e-02       7.179696e-02 
       4.000000e+00      -7.180222e-02      -7.181710e-02 
       4.000000e+00       7.181185e-02      -7.181710e-02 
       4.000000e+00       7.181185e-02       7.179696e-02 
       4.000000e+00      -7.180222e-02       7.179696e-02 
       4.200000e+00      -7.180176e-02      -7.181806e-02 
[...]
POINT_DATA       800 
VECTORS Displacements float
       7.78498755e-24      -2.77555756e-17       0.00000000e+00 
       1.43007062e-23       0.00000000e+00      -1.38777878e-17 
      -7.78498755e-24       2.77555756e-17       0.00000000e+00 
      -1.43007062e-23       0.00000000e+00       1.38777878e-17 
      -1.06334498e-08       1.36770344e-08      -2.84671349e-08 
      -3.02125056e-08       1.36770330e-08      -2.84670971e-08 
       1.05444223e-08       1.36770008e-08      -2.84671029e-08 
       3.01234780e-08       1.36770021e-08      -2.84671407e-08 
      -1.06334498e-08       1.36770344e-08      -2.84671349e-08 
      -3.02125056e-08       1.36770330e-08      -2.84670971e-08 
       1.05444223e-08       1.36770008e-08      -2.84671029e-08 
       3.01234780e-08       1.36770021e-08      -2.84671407e-08 
      -2.10786111e-08       5.43567979e-08      -1.13167408e-07 
      -5.98583305e-08       5.43567927e-08      -1.13167327e-07 
       2.09003700e-08       5.43567335e-08      -1.13167350e-07 
       5.96800893e-08       5.43567387e-08      -1.13167431e-07 
      -2.10786111e-08       5.43567979e-08      -1.13167408e-07 
      -5.98583305e-08       5.43567927e-08      -1.13167327e-07 
       2.09003700e-08       5.43567335e-08      -1.13167350e-07 
       5.96800893e-08       5.43567387e-08      -1.13167431e-07 
      -3.13354821e-08       1.21512334e-07      -2.53049174e-07 
      -8.89374728e-08       1.21512322e-07      -2.53049045e-07 
       3.10678449e-08       1.21512241e-07      -2.53049095e-07 
       8.86698356e-08       1.21512253e-07      -2.53049224e-07 
      -3.13354821e-08       1.21512334e-07      -2.53049174e-07 
      -8.89374728e-08       1.21512322e-07      -2.53049045e-07 
       3.10678449e-08       1.21512241e-07      -2.53049095e-07 
       8.86698356e-08       1.21512253e-07      -2.53049224e-07 
      -4.14040612e-08       2.14616685e-07      -4.47060788e-07 
      -1.17449931e-07       2.14616665e-07      -4.47060606e-07 
       4.10468488e-08       2.14616567e-07      -4.47060694e-07 
       1.17092719e-07       2.14616587e-07      -4.47060876e-07 
      -4.14040612e-08       2.14616685e-07      -4.47060788e-07 
      -1.17449931e-07       2.14616665e-07      -4.47060606e-07 
       4.10468488e-08       2.14616567e-07      -4.47060694e-07 
       1.17092719e-07       2.14616587e-07      -4.47060876e-07 
      -5.12843462e-08       3.33142895e-07      -6.94150605e-07 
      -1.45395703e-07       3.33142864e-07      -6.94150366e-07 
       5.08373832e-08       3.33142753e-07      -6.94150500e-07 
       1.44948740e-07       3.33142784e-07      -6.94150739e-07 
      -5.12843462e-08       3.33142895e-07      -6.94150605e-07 
      -1.45395703e-07       3.33142864e-07      -6.94150366e-07 
       5.08373832e-08       3.33142753e-07      -6.94150500e-07 
       1.44948740e-07       3.33142784e-07      -6.94150739e-07 
      -6.09763360e-08       4.76564006e-07      -9.93266980e-07 
      -1.72774788e-07       4.76563962e-07      -9.93266679e-07 
       6.04394506e-08       4.76563843e-07      -9.93266869e-07 
       1.72237902e-07       4.76563887e-07      -9.93267170e-07 
      -6.09763360e-08       4.76564006e-07      -9.93266980e-07 
      -1.72774788e-07       4.76563962e-07      -9.93266679e-07 
       6.04394506e-08       4.76563843e-07      -9.93266869e-07 
       1.72237902e-07       4.76563887e-07      -9.93267170e-07 
      -7.04800283e-08       6.44353062e-07      -1.34335827e-06 
      -1.99587183e-07       6.44353004e-07      -1.34335790e-06 
       6.98530516e-08       6.44352880e-07      -1.34335815e-06 
       1.98960206e-07       6.44352938e-07      -1.34335852e-06 
      -7.04800283e-08       6.44353062e-07      -1.34335827e-06 
      -1.99587183e-07       6.44353004e-07      -1.34335790e-06 
       6.98530516e-08       6.44352880e-07      -1.34335815e-06 
       1.98960206e-07       6.44352938e-07      -1.34335852e-06 
      -7.97954214e-08       8.35983106e-07      -1.74337282e-06 
      -2.25832887e-07       8.35983032e-07      -1.74337239e-06 
       7.90781889e-08       8.35982907e-07      -1.74337271e-06 
       2.25115654e-07       8.35982981e-07      -1.74337315e-06 
      -7.97954214e-08       8.35983106e-07      -1.74337282e-06 
      -2.25832887e-07       8.35983032e-07      -1.74337239e-06 
       7.90781889e-08       8.35982907e-07      -1.74337271e-06 
       2.25115654e-07       8.35982981e-07      -1.74337315e-06 
      -8.89225138e-08       1.05092718e-06      -2.19225900e-06 
      -2.51511898e-07       1.05092709e-06      -2.19225849e-06 
       8.81148636e-08       1.05092697e-06      -2.19225889e-06 
       2.50704248e-07       1.05092706e-06      -2.19225940e-06 
      -8.89225138e-08       1.05092718e-06      -2.19225900e-06 
      -2.51511898e-07       1.05092709e-06      -2.19225849e-06 
       8.81148636e-08       1.05092697e-06      -2.19225889e-06 
       2.50704248e-07       1.05092706e-06      -2.19225940e-06 
      -9.78613035e-08       1.28865833e-06      -2.68896515e-06 
      -2.76624214e-07       1.28865822e-06      -2.68896457e-06 
       9.69630780e-08       1.28865810e-06      -2.68896506e-06 
       2.75725988e-07       1.28865821e-06      -2.68896564e-06 
      -9.78613035e-08       1.28865833e-06      -2.68896515e-06 
      -2.76624214e-07       1.28865822e-06      -2.68896457e-06 
       9.69630780e-08       1.28865810e-06      -2.68896506e-06 
       2.75725988e-07       1.28865821e-06      -2.68896564e-06 
      -1.06605726e-07       1.54865903e-06      -3.23245743e-06 
      -3.01183952e-07       1.54865889e-06      -3.23245678e-06 
       1.05646529e-07       1.54865880e-06      -3.23245736e-06 
       3.00224756e-07       1.54865893e-06      -3.23245800e-06 
      -1.06605726e-07       1.54865903e-06      -3.23245743e-06 
      -3.01183952e-07       1.54865889e-06      -3.23245678e-06 
       1.05646529e-07       1.54865880e-06      -3.23245736e-06 
       3.00224756e-07       1.54865893e-06      -3.23245800e-06 
      -1.15178874e-07       1.83044869e-06      -3.82177028e-06 
      -3.25233806e-07       1.83044853e-06      -3.82176957e-06 
       1.14158293e-07       1.83044846e-06      -3.82177024e-06 
       3.24213224e-07       1.83044862e-06      -3.82177095e-06 
      -1.15178874e-07       1.83044869e-06      -3.82177028e-06 
      -3.25233806e-07       1.83044853e-06      -3.82176957e-06 
       1.14158293e-07       1.83044846e-06      -3.82177024e-06 
       3.24213224e-07       1.83044862e-06      -3.82177095e-06 
      -1.23580747e-07       2.13355576e-06      -4.45595455e-06 
      -3.48773771e-07       2.13355558e-06      -4.45595377e-06 
       1.22498372e-07       2.13355554e-06      -4.45595454e-06 
       3.47691397e-07       2.13355571e-06      -4.45595532e-06 
      -1.23580747e-07       2.13355576e-06      -4.45595455e-06 
      -3.48773771e-07       2.13355558e-06      -4.45595377e-06 
       1.22498372e-07       2.13355554e-06      -4.45595454e-06 
       3.47691397e-07       2.13355571e-06      -4.45595532e-06 
      -1.31811337e-07       2.45750868e-06      -5.13406106e-06 
      -3.71803843e-07       2.45750848e-06      -5.13406020e-06 
       1.30666774e-07       2.45750846e-06      -5.13406108e-06 
       3.70659279e-07       2.45750866e-06      -5.13406194e-06 
      -1.31811337e-07       2.45750868e-06      -5.13406106e-06 
      -3.71803843e-07       2.45750848e-06      -5.13406020e-06 
       1.30666774e-07       2.45750846e-06      -5.13406108e-06 
       3.70659279e-07       2.45750866e-06      -5.13406194e-06 
      -1.39870643e-07       2.80183589e-06      -5.85514064e-06 
      -3.94324018e-07       2.80183567e-06      -5.85513971e-06 
       1.38663500e-07       2.80183568e-06      -5.85514070e-06 
       3.93116875e-07       2.80183591e-06      -5.85514163e-06 
      -1.39870643e-07       2.80183589e-06      -5.85514064e-06 
      -3.94324018e-07       2.80183567e-06      -5.85513971e-06 
       1.38663500e-07       2.80183568e-06      -5.85514070e-06 
       3.93116875e-07       2.80183591e-06      -5.85514163e-06 
      -1.47758659e-07       3.16606584e-06      -6.61824411e-06 
      -4.16334291e-07       3.16606559e-06      -6.61824311e-06 
       1.46488556e-07       3.16606564e-06      -6.61824421e-06 
       4.15064188e-07       3.16606589e-06      -6.61824522e-06 
      -1.47758659e-07       3.16606584e-06      -6.61824411e-06 
      -4.16334291e-07       3.16606559e-06      -6.61824311e-06 
       1.46488556e-07       3.16606564e-06      -6.61824421e-06 
       4.15064188e-07       3.16606589e-06      -6.61824522e-06 
      -1.55475380e-07       3.54972696e-06      -7.42242232e-06 
      -4.37834657e-07       3.54972668e-06      -7.42242124e-06 
       1.54141946e-07       3.54972677e-06      -7.42242246e-06 
       4.36501223e-07       3.54972704e-06      -7.42242354e-06 
      -1.55475380e-07       3.54972696e-06      -7.42242232e-06 
      -4.37834657e-07       3.54972668e-06      -7.42242124e-06 
       1.54141946e-07       3.54972677e-06      -7.42242246e-06 
       4.36501223e-07       3.54972704e-06      -7.42242354e-06 
      -1.63020803e-07       3.95234770e-06      -8.26672607e-06 
      -4.58825113e-07       3.95234740e-06      -8.26672491e-06 
       1.61623675e-07       3.95234752e-06      -8.26672625e-06 
       4.57427985e-07       3.95234782e-06      -8.26672741e-06 
      -1.63020803e-07       3.95234770e-06      -8.26672607e-06 
      -4.58825113e-07       3.95234740e-06      -8.26672491e-06 
       1.61623675e-07       3.95234752e-06      -8.26672625e-06 
       4.57427985e-07       3.95234782e-06      -8.26672741e-06 
      -1.70394922e-07       4.37345650e-06      -9.15020621e-06 
      -4.79305654e-07       4.37345617e-06      -9.15020497e-06 
       1.68933746e-07       4.37345633e-06      -9.15020644e-06 
       4.77844478e-07       4.37345666e-06      -9.15020768e-06 
      -1.70394922e-07       4.37345650e-06      -9.15020621e-06 
      -4.79305654e-07       4.37345617e-06      -9.15020497e-06 
       1.68933746e-07       4.37345633e-06      -9.15020644e-06 
       4.77844478e-07       4.37345666e-06      -9.15020768e-06 
      -1.77597735e-07       4.81258180e-06      -1.00719136e-05 
      -4.99276276e-07       4.81258144e-06      -1.00719122e-05 
       1.76072165e-07       4.81258164e-06      -1.00719138e-05 
       4.97750706e-07       4.81258200e-06      -1.00719152e-05 
      -1.77597735e-07       4.81258180e-06      -1.00719136e-05 
      -4.99276276e-07       4.81258144e-06      -1.00719122e-05 
       1.76072165e-07       4.81258164e-06      -1.00719138e-05 
       4.97750706e-07       4.81258200e-06      -1.00719152e-05 
      -1.84626749e-07       5.26926117e-06      -1.10309155e-05 
      -5.18754219e-07       5.26926078e-06      -1.10309141e-05 
       1.83057720e-07       5.26926103e-06      -1.10309158e-05 
       5.17185190e-07       5.26926142e-06      -1.10309172e-05 
      -1.84626749e-07       5.26926117e-06      -1.10309155e-05 
      -5.18754219e-07       5.26926078e-06      -1.10309141e-05 
       1.83057720e-07       5.26926103e-06      -1.10309158e-05 
       5.17185190e-07       5.26926142e-06      -1.10309172e-05 
      -1.91501528e-07       5.74306906e-06      -1.20263478e-05 
      -5.37779023e-07       5.74306864e-06      -1.20263463e-05 
       1.89888544e-07       5.74306893e-06      -1.20263481e-05 
       5.36166040e-07       5.74306935e-06      -1.20263496e-05 
      -1.91501528e-07       5.74306906e-06      -1.20263478e-05 
      -5.37779023e-07       5.74306864e-06      -1.20263463e-05 
       1.89888544e-07       5.74306893e-06      -1.20263481e-05 
       5.36166040e-07       5.74306935e-06      -1.20263496e-05 
      -1.98222064e-07       6.23358920e-06      -1.30573639e-05 
      -5.56350682e-07       6.23358875e-06      -1.30573623e-05 
       1.96564642e-07       6.23358909e-06      -1.30573643e-05 
       5.54693260e-07       6.23358954e-06      -1.30573659e-05 
      -1.98222064e-07       6.23358920e-06      -1.30573639e-05 
      -5.56350682e-07       6.23358875e-06      -1.30573623e-05 
       1.96564642e-07       6.23358909e-06      -1.30573643e-05 
       5.54693260e-07       6.23358954e-06      -1.30573659e-05 
      -2.04788352e-07       6.74040533e-06      -1.41231173e-05 
      -5.74469190e-07       6.74040485e-06      -1.41231157e-05 
       2.03086019e-07       6.74040524e-06      -1.41231178e-05 
       5.72766857e-07       6.74040572e-06      -1.41231194e-05 
      -2.04788352e-07       6.74040533e-06      -1.41231173e-05 
      -5.74469190e-07       6.74040485e-06      -1.41231157e-05 
       2.03086019e-07       6.74040524e-06      -1.41231178e-05 
       5.72766857e-07       6.74040572e-06      -1.41231194e-05 
      -2.11200388e-07       7.26310120e-06      -1.52227615e-05 
      -5.92134542e-07       7.26310070e-06      -1.52227598e-05 
       2.09452681e-07       7.26310114e-06      -1.52227620e-05 
       5.90386836e-07       7.26310164e-06      -1.52227637e-05 
      -2.11200388e-07       7.26310120e-06      -1.52227615e-05 
      -5.92134542e-07       7.26310070e-06      -1.52227598e-05 
       2.09452681e-07       7.26310114e-06      -1.52227620e-05 
       5.90386836e-07       7.26310164e-06      -1.52227637e-05 
      -2.17458164e-07       7.80126055e-06      -1.63554499e-05 
      -6.09346732e-07       7.80126002e-06      -1.63554481e-05 
       2.15664635e-07       7.80126051e-06      -1.63554505e-05 
       6.07553203e-07       7.80126104e-06      -1.63554522e-05 
      -2.17458164e-07       7.80126055e-06      -1.63554499e-05 
      -6.09346732e-07       7.80126002e-06      -1.63554481e-05 
       2.15664635e-07       7.80126051e-06      -1.63554505e-05 
       6.07553203e-07       7.80126104e-06      -1.63554522e-05 
      -2.23561675e-07       8.35446712e-06      -1.75203359e-05 
      -6.26105754e-07       8.35446656e-06      -1.75203341e-05 
       2.21721885e-07       8.35446710e-06      -1.75203366e-05 
       6.24265964e-07       8.35446766e-06      -1.75203384e-05 
      -2.23561675e-07       8.35446712e-06      -1.75203359e-05 
      -6.26105754e-07       8.35446656e-06      -1.75203341e-05 
       2.21721885e-07       8.35446710e-06      -1.75203366e-05 
       6.24265964e-07       8.35446766e-06      -1.75203384e-05 
      -2.29510913e-07       8.92230465e-06      -1.87165732e-05 
      -6.42411600e-07       8.92230406e-06      -1.87165713e-05 
       2.27624439e-07       8.92230465e-06      -1.87165739e-05 
       6.40525126e-07       8.92230524e-06      -1.87165758e-05 
      -2.29510913e-07       8.92230465e-06      -1.87165732e-05 
      -6.42411600e-07       8.92230406e-06      -1.87165713e-05 
       2.27624439e-07       8.92230465e-06      -1.87165739e-05 
       6.40525126e-07       8.92230524e-06      -1.87165758e-05 
      -2.35305877e-07       9.50435689e-06      -1.99433151e-05 
      -6.58264268e-07       9.50435626e-06      -1.99433131e-05 
       2.33372302e-07       9.50435690e-06      -1.99433158e-05 
       6.56330692e-07       9.50435753e-06      -1.99433178e-05 
      -2.35305877e-07       9.50435689e-06      -1.99433151e-05 
      -6.58264268e-07       9.50435626e-06      -1.99433131e-05 
       2.33372302e-07       9.50435690e-06      -1.99433158e-05 
       6.56330692e-07       9.50435753e-06      -1.99433178e-05 
      -2.40946558e-07       1.01002076e-05      -2.11997150e-05 
      -6.73663751e-07       1.01002069e-05      -2.11997130e-05 
       2.38965479e-07       1.01002076e-05      -2.11997159e-05 
       6.71682670e-07       1.01002083e-05      -2.11997179e-05 
      -2.40946558e-07       1.01002076e-05      -2.11997150e-05 
      -6.73663751e-07       1.01002069e-05      -2.11997130e-05 
       2.38965478e-07       1.01002076e-05      -2.11997159e-05 
       6.71682670e-07       1.01002083e-05      -2.11997179e-05 
      -2.46433993e-07       1.07094496e-05      -2.24849432e-05 
      -6.88630862e-07       1.07094489e-05      -2.24849411e-05 
       2.44419646e-07       1.07094496e-05      -2.24849441e-05 
       6.86616515e-07       1.07094503e-05      -2.24849462e-05 
      -2.46433993e-07       1.07094496e-05      -2.24849432e-05 
      -6.88630862e-07       1.07094489e-05      -2.24849411e-05 
       2.44419646e-07       1.07094496e-05      -2.24849441e-05 
       6.86616515e-07       1.07094503e-05      -2.24849462e-05 
      -2.51784838e-07       1.13317129e-05      -2.37982396e-05 
      -7.03202470e-07       1.13317121e-05      -2.37982375e-05 
       2.49736744e-07       1.13317129e-05      -2.37982406e-05 
       7.01154376e-07       1.13317137e-05      -2.37982428e-05 
      -2.51784838e-07       1.13317129e-05      -2.37982396e-05 
      -7.03202470e-07       1.13317121e-05      -2.37982375e-05 
       2.49736744e-07       1.13317129e-05      -2.37982406e-05 
       7.01154376e-07       1.13317137e-05      -2.37982428e-05 
      -2.56999085e-07       1.19666369e-05      -2.51388627e-05 
      -7.17378569e-07       1.19666362e-05      -2.51388604e-05 
       2.54916777e-07       1.19666370e-05      -2.51388637e-05 
       7.15296262e-07       1.19666378e-05      -2.51388660e-05 
      -2.56999085e-07       1.19666369e-05      -2.51388627e-05 
      -7.17378569e-07       1.19666362e-05      -2.51388604e-05 
       2.54916777e-07       1.19666370e-05      -2.51388637e-05 
       7.15296262e-07       1.19666378e-05      -2.51388660e-05 
      -2.62076729e-07       1.26138611e-05      -2.65060707e-05 
      -7.31159153e-07       1.26138604e-05      -2.65060684e-05 
       2.59959753e-07       1.26138613e-05      -2.65060718e-05 
       7.29042177e-07       1.26138621e-05      -2.65060741e-05 
      -2.62076729e-07       1.26138611e-05      -2.65060707e-05 
      -7.31159153e-07       1.26138604e-05      -2.65060684e-05 
       2.59959753e-07       1.26138613e-05      -2.65060718e-05 
       7.29042177e-07       1.26138621e-05      -2.65060741e-05 
      -2.67017763e-07       1.32730250e-05      -2.78991219e-05 
      -7.44544215e-07       1.32730242e-05      -2.78991195e-05 
       2.64865676e-07       1.32730252e-05      -2.78991231e-05 
       7.42392126e-07       1.32730260e-05      -2.78991255e-05 
      -2.67017763e-07       1.32730250e-05      -2.78991219e-05 
      -7.44544215e-07       1.32730242e-05      -2.78991195e-05 
       2.64865676e-07       1.32730252e-05      -2.78991231e-05 
       7.42392126e-07       1.32730260e-05      -2.78991255e-05 
      -2.71822182e-07       1.39437679e-05      -2.93172747e-05 
      -7.57533747e-07       1.39437671e-05      -2.93172723e-05 
       2.69634555e-07       1.39437681e-05      -2.93172759e-05 
       7.55346120e-07       1.39437689e-05      -2.93172784e-05 
      -2.71822182e-07       1.39437679e-05      -2.93172747e-05 
      -7.57533747e-07       1.39437671e-05      -2.93172723e-05 
       2.69634555e-07       1.39437681e-05      -2.93172759e-05 
       7.55346120e-07       1.39437689e-05      -2.93172784e-05 
      -2.76489977e-07       1.46257293e-05      -3.07597874e-05 
      -7.70127745e-07       1.46257284e-05      -3.07597849e-05 
       2.74266394e-07       1.46257295e-05      -3.07597887e-05 
       7.67904162e-07       1.46257303e-05      -3.07597912e-05 
      -2.76489977e-07       1.46257293e-05      -3.07597874e-05 
      -7.70127745e-07       1.46257284e-05      -3.07597849e-05 
       2.74266394e-07       1.46257295e-05      -3.07597887e-05 
       7.67904162e-07       1.46257303e-05      -3.07597912e-05 
      -2.81021141e-07       1.53185486e-05      -3.22259184e-05 
      -7.82326200e-07       1.53185477e-05      -3.22259158e-05 
       2.78761202e-07       1.53185488e-05      -3.22259197e-05 
       7.80066260e-07       1.53185497e-05      -3.22259223e-05 
      -2.81021141e-07       1.53185486e-05      -3.22259184e-05 
      -7.82326200e-07       1.53185477e-05      -3.22259158e-05 