# vtk DataFile Version 2.0
./output/onsasExample_BladeCantileverBeamNoPitch_windVel3DDynamic 3D/onsasExample_BladeCantileverBeamNoPitch_windVel3DDynamic 3D_0312.vtk
ASCII
DATASET UNSTRUCTURED_GRID

POINTS 800 float
       2.020993e-23      -7.180703e-02      -7.180703e-02 
       4.247608e-24       7.180703e-02      -7.180703e-02 
      -2.020993e-23       7.180703e-02       7.180703e-02 
      -4.247608e-24      -7.180703e-02       7.180703e-02 
       2.000000e-01      -7.180702e-02      -7.180706e-02 
       2.000000e-01       7.180705e-02      -7.180706e-02 
       2.000000e-01       7.180705e-02       7.180701e-02 
       2.000000e-01      -7.180702e-02       7.180701e-02 
       2.000000e-01      -7.180702e-02      -7.180706e-02 
       2.000000e-01       7.180705e-02      -7.180706e-02 
       2.000000e-01       7.180705e-02       7.180701e-02 
       2.000000e-01      -7.180702e-02       7.180701e-02 
       4.000000e-01      -7.180698e-02      -7.180714e-02 
       3.999999e-01       7.180709e-02      -7.180714e-02 
       4.000000e-01       7.180709e-02       7.180692e-02 
       4.000001e-01      -7.180698e-02       7.180692e-02 
       4.000000e-01      -7.180698e-02      -7.180714e-02 
       3.999999e-01       7.180709e-02      -7.180714e-02 
       4.000000e-01       7.180709e-02       7.180692e-02 
       4.000001e-01      -7.180698e-02       7.180692e-02 
       6.000000e-01      -7.180691e-02      -7.180728e-02 
       5.999999e-01       7.180716e-02      -7.180728e-02 
       6.000000e-01       7.180716e-02       7.180679e-02 
       6.000001e-01      -7.180691e-02       7.180679e-02 
       6.000000e-01      -7.180691e-02      -7.180728e-02 
       5.999999e-01       7.180716e-02      -7.180728e-02 
       6.000000e-01       7.180716e-02       7.180679e-02 
       6.000001e-01      -7.180691e-02       7.180679e-02 
       8.000000e-01      -7.180682e-02      -7.180746e-02 
       7.999999e-01       7.180725e-02      -7.180746e-02 
       8.000000e-01       7.180725e-02       7.180660e-02 
       8.000001e-01      -7.180682e-02       7.180660e-02 
       8.000000e-01      -7.180682e-02      -7.180746e-02 
       7.999999e-01       7.180725e-02      -7.180746e-02 
       8.000000e-01       7.180725e-02       7.180660e-02 
       8.000001e-01      -7.180682e-02       7.180660e-02 
       1.000000e+00      -7.180670e-02      -7.180770e-02 
       9.999999e-01       7.180737e-02      -7.180770e-02 
       1.000000e+00       7.180737e-02       7.180636e-02 
       1.000000e+00      -7.180670e-02       7.180636e-02 
       1.000000e+00      -7.180670e-02      -7.180770e-02 
       9.999999e-01       7.180737e-02      -7.180770e-02 
       1.000000e+00       7.180737e-02       7.180636e-02 
       1.000000e+00      -7.180670e-02       7.180636e-02 
       1.200000e+00      -7.180655e-02      -7.180799e-02 
       1.200000e+00       7.180752e-02      -7.180799e-02 
       1.200000e+00       7.180752e-02       7.180608e-02 
       1.200000e+00      -7.180655e-02       7.180608e-02 
       1.200000e+00      -7.180655e-02      -7.180799e-02 
       1.200000e+00       7.180752e-02      -7.180799e-02 
       1.200000e+00       7.180752e-02       7.180608e-02 
       1.200000e+00      -7.180655e-02       7.180608e-02 
       1.400000e+00      -7.180638e-02      -7.180833e-02 
       1.400000e+00       7.180769e-02      -7.180833e-02 
       1.400000e+00       7.180769e-02       7.180574e-02 
       1.400000e+00      -7.180638e-02       7.180574e-02 
       1.400000e+00      -7.180638e-02      -7.180833e-02 
       1.400000e+00       7.180769e-02      -7.180833e-02 
       1.400000e+00       7.180769e-02       7.180574e-02 
       1.400000e+00      -7.180638e-02       7.180574e-02 
       1.600000e+00      -7.180619e-02      -7.180871e-02 
       1.600000e+00       7.180788e-02      -7.180871e-02 
       1.600000e+00       7.180788e-02       7.180536e-02 
       1.600000e+00      -7.180619e-02       7.180536e-02 
       1.600000e+00      -7.180619e-02      -7.180871e-02 
       1.600000e+00       7.180788e-02      -7.180871e-02 
       1.600000e+00       7.180788e-02       7.180536e-02 
       1.600000e+00      -7.180619e-02       7.180536e-02 
       1.800000e+00      -7.180597e-02      -7.180914e-02 
       1.800000e+00       7.180810e-02      -7.180914e-02 
       1.800000e+00       7.180810e-02       7.180492e-02 
       1.800000e+00      -7.180597e-02       7.180492e-02 
       1.800000e+00      -7.180597e-02      -7.180914e-02 
       1.800000e+00       7.180810e-02      -7.180914e-02 
       1.800000e+00       7.180810e-02       7.180492e-02 
       1.800000e+00      -7.180597e-02       7.180492e-02 
       2.000000e+00      -7.180573e-02      -7.180962e-02 
       2.000000e+00       7.180834e-02      -7.180962e-02 
       2.000000e+00       7.180834e-02       7.180445e-02 
       2.000000e+00      -7.180573e-02       7.180445e-02 
       2.000000e+00      -7.180573e-02      -7.180962e-02 
       2.000000e+00       7.180834e-02      -7.180962e-02 
       2.000000e+00       7.180834e-02       7.180445e-02 
       2.000000e+00      -7.180573e-02       7.180445e-02 
       2.200000e+00      -7.180546e-02      -7.181014e-02 
       2.200000e+00       7.180860e-02      -7.181014e-02 
       2.200000e+00       7.180860e-02       7.180392e-02 
       2.200000e+00      -7.180546e-02       7.180392e-02 
       2.200000e+00      -7.180546e-02      -7.181014e-02 
       2.200000e+00       7.180860e-02      -7.181014e-02 
       2.200000e+00       7.180860e-02       7.180392e-02 
       2.200000e+00      -7.180546e-02       7.180392e-02 
       2.400000e+00      -7.180518e-02      -7.181071e-02 
       2.400000e+00       7.180889e-02      -7.181071e-02 
       2.400000e+00       7.180889e-02       7.180336e-02 
       2.400000e+00      -7.180518e-02       7.180336e-02 
       2.400000e+00      -7.180518e-02      -7.181071e-02 
       2.400000e+00       7.180889e-02      -7.181071e-02 
       2.400000e+00       7.180889e-02       7.180336e-02 
       2.400000e+00      -7.180518e-02       7.180336e-02 
       2.600000e+00      -7.180487e-02      -7.181132e-02 
       2.600000e+00       7.180920e-02      -7.181132e-02 
       2.600000e+00       7.180920e-02       7.180275e-02 
       2.600000e+00      -7.180487e-02       7.180275e-02 
       2.600000e+00      -7.180487e-02      -7.181132e-02 
       2.600000e+00       7.180920e-02      -7.181132e-02 
       2.600000e+00       7.180920e-02       7.180275e-02 
       2.600000e+00      -7.180487e-02       7.180275e-02 
       2.800000e+00      -7.180454e-02      -7.181197e-02 
       2.800000e+00       7.180952e-02      -7.181197e-02 
       2.800000e+00       7.180952e-02       7.180210e-02 
       2.800000e+00      -7.180454e-02       7.180210e-02 
       2.800000e+00      -7.180454e-02      -7.181197e-02 
       2.800000e+00       7.180952e-02      -7.181197e-02 
       2.800000e+00       7.180952e-02       7.180210e-02 
       2.800000e+00      -7.180454e-02       7.180210e-02 
       3.000000e+00      -7.180419e-02      -7.181266e-02 
       3.000000e+00       7.180987e-02      -7.181266e-02 
       3.000000e+00       7.180987e-02       7.180141e-02 
       3.000000e+00      -7.180419e-02       7.180141e-02 
       3.000000e+00      -7.180419e-02      -7.181266e-02 
       3.000000e+00       7.180987e-02      -7.181266e-02 
       3.000000e+00       7.180987e-02       7.180141e-02 
       3.000000e+00      -7.180419e-02       7.180141e-02 
       3.200000e+00      -7.180382e-02      -7.181339e-02 
       3.200000e+00       7.181024e-02      -7.181339e-02 
       3.200000e+00       7.181024e-02       7.180067e-02 
       3.200000e+00      -7.180382e-02       7.180067e-02 
       3.200000e+00      -7.180382e-02      -7.181339e-02 
       3.200000e+00       7.181024e-02      -7.181339e-02 
       3.200000e+00       7.181024e-02       7.180067e-02 
       3.200000e+00      -7.180382e-02       7.180067e-02 
       3.400000e+00      -7.180343e-02      -7.181416e-02 
       3.400000e+00       7.181063e-02      -7.181416e-02 
       3.400000e+00       7.181063e-02       7.179990e-02 
       3.400000e+00      -7.180343e-02       7.179990e-02 
       3.400000e+00      -7.180343e-02      -7.181416e-02 
       3.400000e+00       7.181063e-02      -7.181416e-02 
       3.400000e+00       7.181063e-02       7.179990e-02 
       3.400000e+00      -7.180343e-02       7.179990e-02 
       3.600000e+00      -7.180302e-02      -7.181497e-02 
       3.600000e+00       7.181104e-02      -7.181497e-02 
       3.600000e+00       7.181104e-02       7.179909e-02 
       3.600000e+00      -7.180302e-02       7.179909e-02 
       3.600000e+00      -7.180302e-02      -7.181497e-02 
       3.600000e+00       7.181104e-02      -7.181497e-02 
       3.600000e+00       7.181104e-02       7.179909e-02 
       3.600000e+00      -7.180302e-02       7.179909e-02 
       3.800000e+00      -7.180260e-02      -7.181582e-02 
       3.800000e+00       7.181147e-02      -7.181582e-02 
       3.800000e+00       7.181147e-02       7.179824e-02 
       3.800000e+00      -7.180260e-02       7.179824e-02 
       3.800000e+00      -7.180260e-02      -7.181582e-02 
       3.800000e+00       7.181147e-02      -7.181582e-02 
       3.800000e+00       7.181147e-02       7.179824e-02 
       3.800000e+00      -7.180260e-02       7.179824e-02 
       4.000000e+00      -7.180215e-02      -7.181671e-02 
       4.000000e+00       7.181191e-02      -7.181671e-02 
       4.000000e+00       7.181191e-02       7.179736e-02 
       4.000000e+00      -7.180215e-02       7.179736e-02 
       4.000000e+00      -7.180215e-02      -7.181671e-02 
       4.000000e+00       7.181191e-02      -7.181671e-02 
       4.000000e+00       7.181191e-02       7.179736e-02 
       4.000000e+00      -7.180215e-02       7.179736e-02 
       4.200000e+00      -7.180169e-02      -7.181762e-02 
[...]
POINT_DATA       800 
VECTORS Displacements float
       2.02099330e-23      -1.38777878e-17      -1.38777878e-17 
       4.24760791e-24       2.77555756e-17       0.00000000e+00 
      -2.02099330e-23       1.38777878e-17       1.38777878e-17 
      -4.24760791e-24      -2.77555756e-17       0.00000000e+00 
      -9.74835360e-09       1.38516278e-08      -2.74156491e-08 
      -2.95780637e-08       1.38516264e-08      -2.74156136e-08 
       9.67077918e-09       1.38515964e-08      -2.74156190e-08 
       2.95004893e-08       1.38515977e-08      -2.74156544e-08 
      -9.74835360e-09       1.38516278e-08      -2.74156491e-08 
      -2.95780637e-08       1.38516264e-08      -2.74156136e-08 
       9.67077918e-09       1.38515964e-08      -2.74156190e-08 
       2.95004893e-08       1.38515977e-08      -2.74156544e-08 
      -1.93146629e-08       5.50546841e-08      -1.08972581e-07 
      -5.85951635e-08       5.50546788e-08      -1.08972505e-07 
       1.91593383e-08       5.50546239e-08      -1.08972526e-07 
       5.84398389e-08       5.50546293e-08      -1.08972602e-07 
      -1.93146629e-08       5.50546841e-08      -1.08972581e-07 
      -5.85951635e-08       5.50546788e-08      -1.08972505e-07 
       1.91593383e-08       5.50546239e-08      -1.08972526e-07 
       5.84398389e-08       5.50546293e-08      -1.08972602e-07 
      -2.86989263e-08       1.23081478e-07      -2.43635823e-07 
      -8.70512977e-08       1.23081466e-07      -2.43635701e-07 
       2.84656791e-08       1.23081391e-07      -2.43635748e-07 
       8.68180505e-08       1.23081403e-07      -2.43635870e-07 
      -2.86989263e-08       1.23081478e-07      -2.43635823e-07 
      -8.70512977e-08       1.23081466e-07      -2.43635701e-07 
       2.84656791e-08       1.23081391e-07      -2.43635748e-07 
       8.68180505e-08       1.23081403e-07      -2.43635870e-07 
      -3.79011421e-08       2.17404317e-07      -4.30370401e-07 
      -1.14946465e-07       2.17404296e-07      -4.30370229e-07 
       3.75898033e-08       2.17404206e-07      -4.30370310e-07 
       1.14635126e-07       2.17404227e-07      -4.30370482e-07 
      -3.79011421e-08       2.17404317e-07      -4.30370401e-07 
      -1.14946465e-07       2.17404296e-07      -4.30370229e-07 
       3.75898033e-08       2.17404206e-07      -4.30370310e-07 
       1.14635126e-07       2.17404227e-07      -4.30370482e-07 
      -4.69213084e-08       3.37495510e-07      -6.68141341e-07 
      -1.42280663e-07       3.37495478e-07      -6.68141115e-07 
       4.65317125e-08       3.37495377e-07      -6.68141239e-07 
       1.41891067e-07       3.37495409e-07      -6.68141465e-07 
      -4.69213084e-08       3.37495510e-07      -6.68141341e-07 
      -1.42280663e-07       3.37495478e-07      -6.68141115e-07 
       4.65317125e-08       3.37495377e-07      -6.68141239e-07 
       1.41891067e-07       3.37495409e-07      -6.68141465e-07 
      -5.57594242e-08       4.82827366e-07      -9.55913670e-07 
      -1.69053890e-07       4.82827321e-07      -9.55913386e-07 
       5.52914088e-08       4.82827213e-07      -9.55913561e-07 
       1.68585875e-07       4.82827258e-07      -9.55913846e-07 
      -5.57594242e-08       4.82827366e-07      -9.55913670e-07 
      -1.69053890e-07       4.82827321e-07      -9.55913386e-07 
       5.52914088e-08       4.82827213e-07      -9.55913561e-07 
       1.68585875e-07       4.82827258e-07      -9.55913846e-07 
      -6.44154869e-08       6.52872193e-07      -1.29265241e-06 
      -1.95266145e-07       6.52872134e-07      -1.29265207e-06 
       6.38688931e-08       6.52872023e-07      -1.29265230e-06 
       1.94719551e-07       6.52872082e-07      -1.29265265e-06 
      -6.44154869e-08       6.52872193e-07      -1.29265241e-06 
      -1.95266145e-07       6.52872134e-07      -1.29265207e-06 
       6.38688931e-08       6.52872023e-07      -1.29265230e-06 
       1.94719551e-07       6.52872082e-07      -1.29265265e-06 
      -7.28894953e-08       8.47102300e-07      -1.67732260e-06 
      -2.20917426e-07       8.47102224e-07      -1.67732219e-06 
       7.22641675e-08       8.47102113e-07      -1.67732249e-06 
       2.20292099e-07       8.47102190e-07      -1.67732290e-06 
      -7.28894953e-08       8.47102300e-07      -1.67732260e-06 
      -2.20917426e-07       8.47102224e-07      -1.67732219e-06 
       7.22641675e-08       8.47102113e-07      -1.67732249e-06 
       2.20292099e-07       8.47102190e-07      -1.67732290e-06 
      -8.11814478e-08       1.06499000e-06      -2.10888926e-06 
      -2.46007732e-07       1.06498990e-06      -2.10888877e-06 
       8.04772335e-08       1.06498979e-06      -2.10888915e-06 
       2.45303517e-07       1.06498989e-06      -2.10888963e-06 
      -8.11814478e-08       1.06499000e-06      -2.10888926e-06 
      -2.46007732e-07       1.06498990e-06      -2.10888877e-06 
       8.04772335e-08       1.06498979e-06      -2.10888915e-06 
       2.45303517e-07       1.06498989e-06      -2.10888963e-06 
      -8.92913421e-08       1.30600759e-06      -2.58631741e-06 
      -2.70537060e-07       1.30600747e-06      -2.58631685e-06 
       8.85080933e-08       1.30600737e-06      -2.58631730e-06 
       2.69753811e-07       1.30600749e-06      -2.58631785e-06 
      -8.92913423e-08       1.30600759e-06      -2.58631741e-06 
      -2.70537060e-07       1.30600747e-06      -2.58631685e-06 
       8.85080933e-08       1.30600737e-06      -2.58631730e-06 
       2.69753811e-07       1.30600749e-06      -2.58631785e-06 
      -9.72133223e-08       1.56963674e-06      -3.10858985e-06 
      -2.94519565e-07       1.56963661e-06      -3.10858923e-06 
       9.63804556e-08       1.56963653e-06      -3.10858977e-06 
       2.93686699e-07       1.56963666e-06      -3.10859038e-06 
      -9.72133223e-08       1.56963674e-06      -3.10858985e-06 
      -2.94519565e-07       1.56963661e-06      -3.10858923e-06 
       9.63804556e-08       1.56963653e-06      -3.10858977e-06 
       2.93686699e-07       1.56963666e-06      -3.10859038e-06 
      -1.04970661e-07       1.85539570e-06      -3.67475808e-06 
      -3.17997896e-07       1.85539555e-06      -3.67475740e-06 
       1.04087788e-07       1.85539549e-06      -3.67475802e-06 
       3.17115022e-07       1.85539565e-06      -3.67475870e-06 
      -1.04970661e-07       1.85539570e-06      -3.67475808e-06 
      -3.17997896e-07       1.85539555e-06      -3.67475740e-06 
       1.04087788e-07       1.85539549e-06      -3.67475802e-06 
       3.17115022e-07       1.85539565e-06      -3.67475870e-06 
      -1.12563356e-07       2.16281163e-06      -4.28389016e-06 
      -3.40972048e-07       2.16281145e-06      -4.28388941e-06 
       1.11630093e-07       2.16281142e-06      -4.28389012e-06 
       3.40038784e-07       2.16281160e-06      -4.28389087e-06 
      -1.12563356e-07       2.16281163e-06      -4.28389016e-06 
      -3.40972048e-07       2.16281145e-06      -4.28388941e-06 
       1.11630093e-07       2.16281142e-06      -4.28389012e-06 
       3.40038784e-07       2.16281160e-06      -4.28389087e-06 
      -1.19991403e-07       2.49141168e-06      -4.93505412e-06 
      -3.63442017e-07       2.49141147e-06      -4.93505331e-06 
       1.19007376e-07       2.49141148e-06      -4.93505412e-06 
       3.62457991e-07       2.49141168e-06      -4.93505493e-06 
      -1.19991403e-07       2.49141168e-06      -4.93505412e-06 
      -3.63442017e-07       2.49141147e-06      -4.93505331e-06 
       1.19007376e-07       2.49141148e-06      -4.93505412e-06 
       3.62457991e-07       2.49141168e-06      -4.93505493e-06 
      -1.27254796e-07       2.84072301e-06      -5.62731803e-06 
      -3.85407800e-07       2.84072278e-06      -5.62731714e-06 
       1.26219641e-07       2.84072281e-06      -5.62731806e-06 
       3.84372645e-07       2.84072304e-06      -5.62731894e-06 
      -1.27254796e-07       2.84072301e-06      -5.62731803e-06 
      -3.85407800e-07       2.84072278e-06      -5.62731714e-06 
       1.26219641e-07       2.84072281e-06      -5.62731806e-06 
       3.84372645e-07       2.84072304e-06      -5.62731894e-06 
      -1.34353533e-07       3.21027277e-06      -6.35974993e-06 
      -4.06869392e-07       3.21027252e-06      -6.35974897e-06 
       1.33266892e-07       3.21027258e-06      -6.35974999e-06 
       4.05782751e-07       3.21027284e-06      -6.35975095e-06 
      -1.34353533e-07       3.21027277e-06      -6.35974993e-06 
      -4.06869392e-07       3.21027252e-06      -6.35974897e-06 
       1.33266892e-07       3.21027258e-06      -6.35974999e-06 
       4.05782751e-07       3.21027284e-06      -6.35975095e-06 
      -1.41287608e-07       3.59958814e-06      -7.13141788e-06 
      -4.27826787e-07       3.59958785e-06      -7.13141685e-06 
       1.40149134e-07       3.59958795e-06      -7.13141797e-06 
       4.26688313e-07       3.59958824e-06      -7.13141900e-06 
      -1.41287608e-07       3.59958814e-06      -7.13141788e-06 
      -4.27826787e-07       3.59958785e-06      -7.13141685e-06 
       1.40149134e-07       3.59958795e-06      -7.13141797e-06 
       4.26688313e-07       3.59958824e-06      -7.13141900e-06 
      -1.48057018e-07       4.00819625e-06      -7.94138992e-06 
      -4.48279983e-07       4.00819594e-06      -7.94138881e-06 
       1.46866369e-07       4.00819608e-06      -7.94139004e-06 
       4.47089335e-07       4.00819639e-06      -7.94139115e-06 
      -1.48057018e-07       4.00819625e-06      -7.94138992e-06 
      -4.48279983e-07       4.00819594e-06      -7.94138881e-06 
       1.46866369e-07       4.00819608e-06      -7.94139004e-06 
       4.47089335e-07       4.00819639e-06      -7.94139115e-06 
      -1.54661759e-07       4.43562427e-06      -8.78873410e-06 
      -4.68228976e-07       4.43562393e-06      -8.78873292e-06 
       1.53418603e-07       4.43562411e-06      -8.78873427e-06 
       4.66985822e-07       4.43562445e-06      -8.78873545e-06 
      -1.54661759e-07       4.43562427e-06      -8.78873410e-06 
      -4.68228976e-07       4.43562393e-06      -8.78873292e-06 
       1.53418603e-07       4.43562411e-06      -8.78873427e-06 
       4.66985822e-07       4.43562445e-06      -8.78873545e-06 
      -1.61101826e-07       4.88139937e-06      -9.67251849e-06 
      -4.87673762e-07       4.88139900e-06      -9.67251723e-06 
       1.59805840e-07       4.88139921e-06      -9.67251869e-06 
       4.86377775e-07       4.88139958e-06      -9.67251995e-06 
      -1.61101826e-07       4.88139937e-06      -9.67251849e-06 
      -4.87673762e-07       4.88139900e-06      -9.67251723e-06 
       1.59805841e-07       4.88139921e-06      -9.67251869e-06 
       4.86377776e-07       4.88139958e-06      -9.67251995e-06 
      -1.67375140e-07       5.34505775e-06      -1.05918277e-05 
      -5.06631821e-07       5.34505735e-06      -1.05918264e-05 
       1.66046812e-07       5.34505761e-06      -1.05918280e-05 
       5.05303493e-07       5.34505801e-06      -1.05918293e-05 
      -1.67375140e-07       5.34505775e-06      -1.05918277e-05 
      -5.06631821e-07       5.34505735e-06      -1.05918264e-05 
       1.66046812e-07       5.34505761e-06      -1.05918280e-05 
       5.05303493e-07       5.34505801e-06      -1.05918293e-05 
      -1.73501324e-07       5.82617207e-06      -1.15458153e-05 
      -5.25142435e-07       5.82617164e-06      -1.15458139e-05 
       1.72140190e-07       5.82617195e-06      -1.15458156e-05 
       5.23781302e-07       5.82617238e-06      -1.15458170e-05 
      -1.73501324e-07       5.82617207e-06      -1.15458153e-05 
      -5.25142435e-07       5.82617164e-06      -1.15458139e-05 
       1.72140190e-07       5.82617195e-06      -1.15458156e-05 
       5.23781302e-07       5.82617238e-06      -1.15458170e-05 
      -1.79480373e-07       6.32432409e-06      -1.25336527e-05 
      -5.43205598e-07       6.32432363e-06      -1.25336512e-05 
       1.78085983e-07       6.32432399e-06      -1.25336530e-05 
       5.41811208e-07       6.32432445e-06      -1.25336545e-05 
      -1.79480373e-07       6.32432409e-06      -1.25336527e-05 
      -5.43205598e-07       6.32432363e-06      -1.25336512e-05 
       1.78085983e-07       6.32432399e-06      -1.25336530e-05 
       5.41811208e-07       6.32432445e-06      -1.25336545e-05 
      -1.85312282e-07       6.83909559e-06      -1.35545110e-05 
      -5.60821306e-07       6.83909510e-06      -1.35545095e-05 
       1.83884193e-07       6.83909551e-06      -1.35545114e-05 
       5.59393217e-07       6.83909600e-06      -1.35545130e-05 
      -1.85312282e-07       6.83909559e-06      -1.35545110e-05 
      -5.60821306e-07       6.83909510e-06      -1.35545095e-05 
       1.83884193e-07       6.83909551e-06      -1.35545114e-05 
       5.59393217e-07       6.83909600e-06      -1.35545130e-05 
      -1.90997045e-07       7.37006835e-06      -1.46075618e-05 
      -5.77989551e-07       7.37006783e-06      -1.46075602e-05 
       1.89534827e-07       7.37006829e-06      -1.46075622e-05 
       5.76527334e-07       7.37006881e-06      -1.46075638e-05 
      -1.90997045e-07       7.37006835e-06      -1.46075618e-05 
      -5.77989551e-07       7.37006783e-06      -1.46075602e-05 
       1.89534827e-07       7.37006829e-06      -1.46075622e-05 
       5.76527334e-07       7.37006881e-06      -1.46075638e-05 
      -1.96534656e-07       7.91682414e-06      -1.56919763e-05 
      -5.94710330e-07       7.91682359e-06      -1.56919746e-05 
       1.95037890e-07       7.91682410e-06      -1.56919768e-05 
       5.93213564e-07       7.91682465e-06      -1.56919784e-05 
      -1.96534656e-07       7.91682414e-06      -1.56919763e-05 
      -5.94710330e-07       7.91682359e-06      -1.56919746e-05 
       1.95037890e-07       7.91682410e-06      -1.56919768e-05 
       5.93213564e-07       7.91682465e-06      -1.56919784e-05 
      -2.01925110e-07       8.47894473e-06      -1.68069258e-05 
      -6.10983636e-07       8.47894415e-06      -1.68069241e-05 
       2.00393388e-07       8.47894471e-06      -1.68069264e-05 
       6.09451915e-07       8.47894529e-06      -1.68069281e-05 
      -2.01925110e-07       8.47894473e-06      -1.68069258e-05 
      -6.10983636e-07       8.47894415e-06      -1.68069241e-05 
       2.00393388e-07       8.47894471e-06      -1.68069264e-05 
       6.09451915e-07       8.47894529e-06      -1.68069281e-05 
      -2.07168400e-07       9.05601190e-06      -1.79515818e-05 
      -6.26809463e-07       9.05601129e-06      -1.79515799e-05 
       2.05601328e-07       9.05601190e-06      -1.79515824e-05 
       6.25242390e-07       9.05601251e-06      -1.79515842e-05 
      -2.07168400e-07       9.05601190e-06      -1.79515818e-05 
      -6.26809463e-07       9.05601129e-06      -1.79515799e-05 
       2.05601328e-07       9.05601190e-06      -1.79515824e-05 
       6.25242390e-07       9.05601251e-06      -1.79515842e-05 
      -2.12264523e-07       9.64760743e-06      -1.91251155e-05 
      -6.42187806e-07       9.64760678e-06      -1.91251136e-05 
       2.10661712e-07       9.64760744e-06      -1.91251161e-05 
       6.40584996e-07       9.64760808e-06      -1.91251180e-05 
      -2.12264523e-07       9.64760743e-06      -1.91251155e-05 
      -6.42187806e-07       9.64760678e-06      -1.91251136e-05 
       2.10661712e-07       9.64760744e-06      -1.91251161e-05 
       6.40584996e-07       9.64760808e-06      -1.91251180e-05 
      -2.17213472e-07       1.02533131e-05      -2.03266982e-05 
      -6.57118660e-07       1.02533124e-05      -2.03266963e-05 
       2.15574548e-07       1.02533131e-05      -2.03266989e-05 
       6.55479736e-07       1.02533138e-05      -2.03267009e-05 
      -2.17213472e-07       1.02533131e-05      -2.03266982e-05 
      -6.57118661e-07       1.02533124e-05      -2.03266963e-05 
       2.15574548e-07       1.02533131e-05      -2.03266989e-05 
       6.55479737e-07       1.02533138e-05      -2.03267009e-05 
      -2.22016847e-07       1.08727196e-05      -2.15555181e-05 
      -6.71623145e-07       1.08727189e-05      -2.15555160e-05 
       2.20355304e-07       1.08727197e-05      -2.15555188e-05 
       6.69961601e-07       1.08727204e-05      -2.15555208e-05 
      -2.22016847e-07       1.08727196e-05      -2.15555181e-05 
      -6.71623145e-07       1.08727189e-05      -2.15555160e-05 
       2.20355304e-07       1.08727197e-05      -2.15555188e-05 
       6.69961601e-07       1.08727204e-05      -2.15555208e-05 
      -2.26691367e-07       1.15054545e-05      -2.28108335e-05 
      -6.85737875e-07       1.15054538e-05      -2.28108314e-05 
       2.25006758e-07       1.15054546e-05      -2.28108343e-05 
       6.84053267e-07       1.15054553e-05      -2.28108364e-05 
      -2.26691367e-07       1.15054545e-05      -2.28108335e-05 
      -6.85737875e-07       1.15054538e-05      -2.28108314e-05 
       2.25006758e-07       1.15054546e-05      -2.28108343e-05 
       6.84053267e-07       1.15054553e-05      -2.28108364e-05 
      -2.31237024e-07       1.21511543e-05      -2.40919217e-05 
      -6.99462846e-07       1.21511536e-05      -2.40919195e-05 
       2.29528920e-07       1.21511545e-05      -2.40919226e-05 
       6.97754742e-07       1.21511552e-05      -2.40919247e-05 
      -2.31237024e-07       1.21511543e-05      -2.40919217e-05 
      -6.99462846e-07       1.21511536e-05      -2.40919195e-05 
       2.29528920e-07       1.21511545e-05      -2.40919226e-05 
       6.97754742e-07       1.21511552e-05      -2.40919247e-05 
      -2.35653815e-07       1.28094558e-05      -2.53980598e-05 
      -7.12798052e-07       1.28094550e-05      -2.53980576e-05 
       2.33921793e-07       1.28094560e-05      -2.53980607e-05 
       7.11066030e-07       1.28094567e-05      -2.53980630e-05 
      -2.35653815e-07       1.28094558e-05      -2.53980598e-05 
      -7.12798052e-07       1.28094550e-05      -2.53980576e-05 
       2.33921793e-07       1.28094560e-05      -2.53980607e-05 
       7.11066030e-07       1.28094567e-05      -2.53980630e-05 
      -2.39941732e-07       1.34799956e-05      -2.67285251e-05 
      -7.25743486e-07       1.34799948e-05      -2.67285228e-05 
       2.38185384e-07       1.34799958e-05      -2.67285260e-05 
       7.23987137e-07       1.34799966e-05      -2.67285283e-05 
      -2.39941732e-07       1.34799956e-05      -2.67285251e-05 
      -7.25743486e-07       1.34799948e-05      -2.67285228e-05 
       2.38185384e-07       1.34799958e-05      -2.67285260e-05 
       7.23987137e-07       1.34799966e-05      -2.67285283e-05 
      -2.44100771e-07       1.41624104e-05      -2.80825945e-05 
      -7.38299142e-07       1.41624095e-05      -2.80825921e-05 
       2.42319699e-07       1.41624106e-05      -2.80825955e-05 
       7.36518071e-07       1.41624114e-05      -2.80825978e-05 
      -2.44100771e-07       1.41624104e-05      -2.80825945e-05 
      -7.38299142e-07       1.41624095e-05      -2.80825921e-05 
       2.42319699e-07       1.41624106e-05      -2.80825955e-05 
       7.36518071e-07       1.41624114e-05      -2.80825978e-05 
      -2.48130923e-07       1.48563368e-05      -2.94595453e-05 
      -7.50465015e-07       1.48563359e-05      -2.94595429e-05 
       2.46324745e-07       1.48563370e-05      -2.94595464e-05 
       7.48658837e-07       1.48563379e-05      -2.94595488e-05 
      -2.48130923e-07       1.48563368e-05      -2.94595453e-05 
      -7.50465015e-07       1.48563359e-05      -2.94595429e-05 
       2.46324745e-07       1.48563370e-05      -2.94595464e-05 
       7.48658837e-07       1.48563379e-05      -2.94595488e-05 
      -2.52032182e-07       1.55614115e-05      -3.08586547e-05 
      -7.62241097e-07       1.55614106e-05      -3.08586522e-05 
       2.50200527e-07       1.55614117e-05      -3.08586558e-05 
       7.60409442e-07       1.55614126e-05      -3.08586583e-05 
      -2.52032182e-07       1.55614115e-05      -3.08586547e-05 
      -7.62241097e-07       1.55614106e-05      -3.08586522e-05 