# vtk DataFile Version 2.0
./output/onsasExample_BladeCantileverBeamNoPitch_windVel3DDynamic 3D/onsasExample_BladeCantileverBeamNoPitch_windVel3DDynamic 3D_0335.vtk
ASCII
DATASET UNSTRUCTURED_GRID

POINTS 800 float
      -1.095067e-24      -7.180703e-02      -7.180703e-02 
      -2.512496e-23       7.180703e-02      -7.180703e-02 
       1.095067e-24       7.180703e-02       7.180703e-02 
       2.512496e-23      -7.180703e-02       7.180703e-02 
       2.000000e-01      -7.180702e-02      -7.180706e-02 
       2.000000e-01       7.180705e-02      -7.180706e-02 
       2.000000e-01       7.180705e-02       7.180700e-02 
       2.000000e-01      -7.180702e-02       7.180700e-02 
       2.000000e-01      -7.180702e-02      -7.180706e-02 
       2.000000e-01       7.180705e-02      -7.180706e-02 
       2.000000e-01       7.180705e-02       7.180700e-02 
       2.000000e-01      -7.180702e-02       7.180700e-02 
       4.000000e-01      -7.180698e-02      -7.180715e-02 
       3.999999e-01       7.180709e-02      -7.180715e-02 
       4.000000e-01       7.180709e-02       7.180692e-02 
       4.000001e-01      -7.180698e-02       7.180692e-02 
       4.000000e-01      -7.180698e-02      -7.180715e-02 
       3.999999e-01       7.180709e-02      -7.180715e-02 
       4.000000e-01       7.180709e-02       7.180692e-02 
       4.000001e-01      -7.180698e-02       7.180692e-02 
       6.000000e-01      -7.180691e-02      -7.180729e-02 
       5.999999e-01       7.180716e-02      -7.180729e-02 
       6.000000e-01       7.180716e-02       7.180678e-02 
       6.000001e-01      -7.180691e-02       7.180678e-02 
       6.000000e-01      -7.180691e-02      -7.180729e-02 
       5.999999e-01       7.180716e-02      -7.180729e-02 
       6.000000e-01       7.180716e-02       7.180678e-02 
       6.000001e-01      -7.180691e-02       7.180678e-02 
       8.000000e-01      -7.180682e-02      -7.180748e-02 
       7.999999e-01       7.180725e-02      -7.180748e-02 
       8.000000e-01       7.180725e-02       7.180658e-02 
       8.000001e-01      -7.180682e-02       7.180658e-02 
       8.000000e-01      -7.180682e-02      -7.180748e-02 
       7.999999e-01       7.180725e-02      -7.180748e-02 
       8.000000e-01       7.180725e-02       7.180658e-02 
       8.000001e-01      -7.180682e-02       7.180658e-02 
       9.999999e-01      -7.180670e-02      -7.180773e-02 
       9.999999e-01       7.180737e-02      -7.180773e-02 
       1.000000e+00       7.180737e-02       7.180634e-02 
       1.000000e+00      -7.180670e-02       7.180634e-02 
       9.999999e-01      -7.180670e-02      -7.180773e-02 
       9.999999e-01       7.180737e-02      -7.180773e-02 
       1.000000e+00       7.180737e-02       7.180634e-02 
       1.000000e+00      -7.180670e-02       7.180634e-02 
       1.200000e+00      -7.180655e-02      -7.180803e-02 
       1.200000e+00       7.180751e-02      -7.180803e-02 
       1.200000e+00       7.180751e-02       7.180604e-02 
       1.200000e+00      -7.180655e-02       7.180604e-02 
       1.200000e+00      -7.180655e-02      -7.180803e-02 
       1.200000e+00       7.180751e-02      -7.180803e-02 
       1.200000e+00       7.180751e-02       7.180604e-02 
       1.200000e+00      -7.180655e-02       7.180604e-02 
       1.400000e+00      -7.180638e-02      -7.180838e-02 
       1.400000e+00       7.180768e-02      -7.180838e-02 
       1.400000e+00       7.180768e-02       7.180568e-02 
       1.400000e+00      -7.180638e-02       7.180568e-02 
       1.400000e+00      -7.180638e-02      -7.180838e-02 
       1.400000e+00       7.180768e-02      -7.180838e-02 
       1.400000e+00       7.180768e-02       7.180568e-02 
       1.400000e+00      -7.180638e-02       7.180568e-02 
       1.600000e+00      -7.180619e-02      -7.180878e-02 
       1.600000e+00       7.180788e-02      -7.180878e-02 
       1.600000e+00       7.180788e-02       7.180528e-02 
       1.600000e+00      -7.180619e-02       7.180528e-02 
       1.600000e+00      -7.180619e-02      -7.180878e-02 
       1.600000e+00       7.180788e-02      -7.180878e-02 
       1.600000e+00       7.180788e-02       7.180528e-02 
       1.600000e+00      -7.180619e-02       7.180528e-02 
       1.800000e+00      -7.180597e-02      -7.180923e-02 
       1.800000e+00       7.180809e-02      -7.180923e-02 
       1.800000e+00       7.180809e-02       7.180483e-02 
       1.800000e+00      -7.180597e-02       7.180483e-02 
       1.800000e+00      -7.180597e-02      -7.180923e-02 
       1.800000e+00       7.180809e-02      -7.180923e-02 
       1.800000e+00       7.180809e-02       7.180483e-02 
       1.800000e+00      -7.180597e-02       7.180483e-02 
       2.000000e+00      -7.180573e-02      -7.180973e-02 
       2.000000e+00       7.180833e-02      -7.180973e-02 
       2.000000e+00       7.180833e-02       7.180433e-02 
       2.000000e+00      -7.180573e-02       7.180433e-02 
       2.000000e+00      -7.180573e-02      -7.180973e-02 
       2.000000e+00       7.180833e-02      -7.180973e-02 
       2.000000e+00       7.180833e-02       7.180433e-02 
       2.000000e+00      -7.180573e-02       7.180433e-02 
       2.200000e+00      -7.180547e-02      -7.181028e-02 
       2.200000e+00       7.180860e-02      -7.181028e-02 
       2.200000e+00       7.180860e-02       7.180379e-02 
       2.200000e+00      -7.180547e-02       7.180379e-02 
       2.200000e+00      -7.180547e-02      -7.181028e-02 
       2.200000e+00       7.180860e-02      -7.181028e-02 
       2.200000e+00       7.180860e-02       7.180379e-02 
       2.200000e+00      -7.180547e-02       7.180379e-02 
       2.400000e+00      -7.180519e-02      -7.181087e-02 
       2.400000e+00       7.180888e-02      -7.181087e-02 
       2.400000e+00       7.180888e-02       7.180320e-02 
       2.400000e+00      -7.180519e-02       7.180320e-02 
       2.400000e+00      -7.180519e-02      -7.181087e-02 
       2.400000e+00       7.180888e-02      -7.181087e-02 
       2.400000e+00       7.180888e-02       7.180320e-02 
       2.400000e+00      -7.180519e-02       7.180320e-02 
       2.600000e+00      -7.180488e-02      -7.181151e-02 
       2.600000e+00       7.180919e-02      -7.181151e-02 
       2.600000e+00       7.180919e-02       7.180256e-02 
       2.600000e+00      -7.180488e-02       7.180256e-02 
       2.600000e+00      -7.180488e-02      -7.181151e-02 
       2.600000e+00       7.180919e-02      -7.181151e-02 
       2.600000e+00       7.180919e-02       7.180256e-02 
       2.600000e+00      -7.180488e-02       7.180256e-02 
       2.800000e+00      -7.180455e-02      -7.181219e-02 
       2.800000e+00       7.180951e-02      -7.181219e-02 
       2.800000e+00       7.180951e-02       7.180188e-02 
       2.800000e+00      -7.180455e-02       7.180188e-02 
       2.800000e+00      -7.180455e-02      -7.181219e-02 
       2.800000e+00       7.180951e-02      -7.181219e-02 
       2.800000e+00       7.180951e-02       7.180188e-02 
       2.800000e+00      -7.180455e-02       7.180188e-02 
       3.000000e+00      -7.180420e-02      -7.181291e-02 
       3.000000e+00       7.180986e-02      -7.181291e-02 
       3.000000e+00       7.180986e-02       7.180116e-02 
       3.000000e+00      -7.180420e-02       7.180116e-02 
       3.000000e+00      -7.180420e-02      -7.181291e-02 
       3.000000e+00       7.180986e-02      -7.181291e-02 
       3.000000e+00       7.180986e-02       7.180116e-02 
       3.000000e+00      -7.180420e-02       7.180116e-02 
       3.200000e+00      -7.180384e-02      -7.181368e-02 
       3.200000e+00       7.181023e-02      -7.181368e-02 
       3.200000e+00       7.181023e-02       7.180039e-02 
       3.200000e+00      -7.180384e-02       7.180039e-02 
       3.200000e+00      -7.180384e-02      -7.181368e-02 
       3.200000e+00       7.181023e-02      -7.181368e-02 
       3.200000e+00       7.181023e-02       7.180039e-02 
       3.200000e+00      -7.180384e-02       7.180039e-02 
       3.400000e+00      -7.180345e-02      -7.181448e-02 
       3.400000e+00       7.181062e-02      -7.181448e-02 
       3.400000e+00       7.181062e-02       7.179958e-02 
       3.400000e+00      -7.180345e-02       7.179958e-02 
       3.400000e+00      -7.180345e-02      -7.181448e-02 
       3.400000e+00       7.181062e-02      -7.181448e-02 
       3.400000e+00       7.181062e-02       7.179958e-02 
       3.400000e+00      -7.180345e-02       7.179958e-02 
       3.600000e+00      -7.180304e-02      -7.181533e-02 
       3.600000e+00       7.181102e-02      -7.181533e-02 
       3.600000e+00       7.181102e-02       7.179873e-02 
       3.600000e+00      -7.180304e-02       7.179873e-02 
       3.600000e+00      -7.180304e-02      -7.181533e-02 
       3.600000e+00       7.181102e-02      -7.181533e-02 
       3.600000e+00       7.181102e-02       7.179873e-02 
       3.600000e+00      -7.180304e-02       7.179873e-02 
       3.800000e+00      -7.180262e-02      -7.181622e-02 
       3.800000e+00       7.181145e-02      -7.181622e-02 
       3.800000e+00       7.181145e-02       7.179785e-02 
       3.800000e+00      -7.180262e-02       7.179785e-02 
       3.800000e+00      -7.180262e-02      -7.181622e-02 
       3.800000e+00       7.181145e-02      -7.181622e-02 
       3.800000e+00       7.181145e-02       7.179785e-02 
       3.800000e+00      -7.180262e-02       7.179785e-02 
       4.000000e+00      -7.180217e-02      -7.181714e-02 
       3.999999e+00       7.181189e-02      -7.181714e-02 
       4.000000e+00       7.181189e-02       7.179692e-02 
       4.000001e+00      -7.180217e-02       7.179692e-02 
       4.000000e+00      -7.180217e-02      -7.181714e-02 
       3.999999e+00       7.181189e-02      -7.181714e-02 
       4.000000e+00       7.181189e-02       7.179692e-02 
       4.000001e+00      -7.180217e-02       7.179692e-02 
       4.200000e+00      -7.180171e-02      -7.181811e-02 
[...]
POINT_DATA       800 
VECTORS Displacements float
      -1.09506665e-24       0.00000000e+00       0.00000000e+00 
      -2.51249561e-23       1.38777878e-17       0.00000000e+00 
       1.09506665e-24       0.00000000e+00       0.00000000e+00 
       2.51249561e-23      -1.38777878e-17       0.00000000e+00 
      -1.06200554e-08       1.37992548e-08      -2.85714066e-08 
      -3.03745504e-08       1.37992535e-08      -2.85713706e-08 
       1.05319293e-08       1.37992231e-08      -2.85713765e-08 
       3.02864243e-08       1.37992244e-08      -2.85714125e-08 
      -1.06200554e-08       1.37992548e-08      -2.85714066e-08 
      -3.03745504e-08       1.37992535e-08      -2.85713706e-08 
       1.05319293e-08       1.37992231e-08      -2.85713765e-08 
       3.02864243e-08       1.37992244e-08      -2.85714125e-08 
      -2.10514917e-08       5.48451921e-08      -1.13583392e-07 
      -6.01815623e-08       5.48451868e-08      -1.13583314e-07 
       2.08750518e-08       5.48451314e-08      -1.13583337e-07 
       6.00051224e-08       5.48451367e-08      -1.13583415e-07 
      -2.10514917e-08       5.48451921e-08      -1.13583392e-07 
      -6.01815623e-08       5.48451868e-08      -1.13583314e-07 
       2.08750518e-08       5.48451314e-08      -1.13583337e-07 
       6.00051224e-08       5.48451367e-08      -1.13583415e-07 
      -3.12943071e-08       1.22610121e-07      -2.53982653e-07 
      -8.94210341e-08       1.22610109e-07      -2.53982529e-07 
       3.10293690e-08       1.22610034e-07      -2.53982580e-07 
       8.91560960e-08       1.22610046e-07      -2.53982704e-07 
      -3.12943071e-08       1.22610121e-07      -2.53982653e-07 
      -8.94210341e-08       1.22610109e-07      -2.53982529e-07 
       3.10293690e-08       1.22610034e-07      -2.53982580e-07 
       8.91560960e-08       1.22610046e-07      -2.53982704e-07 
      -4.13484997e-08       2.16566350e-07      -4.48715888e-07 
      -1.18092964e-07       2.16566329e-07      -4.48715713e-07 
       4.09948829e-08       2.16566239e-07      -4.48715801e-07 
       1.17739347e-07       2.16566260e-07      -4.48715976e-07 
      -4.13484997e-08       2.16566350e-07      -4.48715888e-07 
      -1.18092964e-07       2.16566329e-07      -4.48715713e-07 
       4.09948829e-08       2.16566239e-07      -4.48715801e-07 
       1.17739347e-07       2.16566260e-07      -4.48715976e-07 
      -5.12140683e-08       3.36186189e-07      -6.96729795e-07 
      -1.46197350e-07       3.36186157e-07      -6.96729564e-07 
       5.07715949e-08       3.36186056e-07      -6.96729699e-07 
       1.45754877e-07       3.36186088e-07      -6.96729930e-07 
      -5.12140683e-08       3.36186189e-07      -6.96729795e-07 
      -1.46197350e-07       3.36186157e-07      -6.96729564e-07 
       5.07715949e-08       3.36186056e-07      -6.96729699e-07 
       1.45754877e-07       3.36186088e-07      -6.96729930e-07 
      -6.08910102e-08       4.80941945e-07      -9.96971070e-07 
      -1.73734190e-07       4.80941901e-07      -9.96970779e-07 
       6.03595076e-08       4.80941794e-07      -9.96970970e-07 
       1.73202688e-07       4.80941838e-07      -9.96971261e-07 
      -6.08910102e-08       4.80941945e-07      -9.96971070e-07 
      -1.73734190e-07       4.80941901e-07      -9.96970779e-07 
       6.03595076e-08       4.80941794e-07      -9.96970970e-07 
       1.73202688e-07       4.80941838e-07      -9.96971261e-07 
      -7.03793246e-08       6.50305930e-07      -1.34838641e-06 
      -2.00703484e-07       6.50305871e-07      -1.34838606e-06 
       6.97586218e-08       6.50305761e-07      -1.34838631e-06 
       2.00082781e-07       6.50305820e-07      -1.34838667e-06 
      -7.03793246e-08       6.50305930e-07      -1.34838641e-06 
      -2.00703484e-07       6.50305871e-07      -1.34838606e-06 
       6.97586218e-08       6.50305761e-07      -1.34838631e-06 
       2.00082781e-07       6.50305820e-07      -1.34838667e-06 
      -7.96790092e-08       8.43750451e-07      -1.74992252e-06 
      -2.27105228e-07       8.43750375e-07      -1.74992209e-06 
       7.89689401e-08       8.43750267e-07      -1.74992242e-06 
       2.26395159e-07       8.43750342e-07      -1.74992284e-06 
      -7.96790092e-08       8.43750451e-07      -1.74992252e-06 
      -2.27105228e-07       8.43750375e-07      -1.74992209e-06 
       7.89689401e-08       8.43750267e-07      -1.74992242e-06 
       2.26395159e-07       8.43750342e-07      -1.74992284e-06 
      -8.87900620e-08       1.06074782e-06      -2.20052608e-06 
      -2.52939421e-07       1.06074772e-06      -2.20052559e-06 
       8.79904634e-08       1.06074762e-06      -2.20052599e-06 
       2.52139823e-07       1.06074771e-06      -2.20052649e-06 
      -8.87900620e-08       1.06074782e-06      -2.20052608e-06 
      -2.52939421e-07       1.06074772e-06      -2.20052559e-06 
       8.79904634e-08       1.06074762e-06      -2.20052599e-06 
       2.52139823e-07       1.06074771e-06      -2.20052649e-06 
      -9.77124819e-08       1.30077034e-06      -2.69914381e-06 
      -2.78206062e-07       1.30077022e-06      -2.69914324e-06 
       9.68231939e-08       1.30077013e-06      -2.69914373e-06 
       2.77316774e-07       1.30077024e-06      -2.69914430e-06 
      -9.77124819e-08       1.30077034e-06      -2.69914381e-06 
      -2.78206062e-07       1.30077022e-06      -2.69914324e-06 
       9.68231939e-08       1.30077013e-06      -2.69914373e-06 
       2.77316774e-07       1.30077024e-06      -2.69914430e-06 
      -1.06439673e-07       1.56329939e-06      -3.24473884e-06 
      -3.02918274e-07       1.56329926e-06      -3.24473821e-06 
       1.05490179e-07       1.56329919e-06      -3.24473879e-06 
       3.01968780e-07       1.56329932e-06      -3.24473942e-06 
      -1.06439673e-07       1.56329939e-06      -3.24473884e-06 
      -3.02918274e-07       1.56329926e-06      -3.24473821e-06 
       1.05490179e-07       1.56329919e-06      -3.24473879e-06 
       3.01968780e-07       1.56329932e-06      -3.24473942e-06 
      -1.14995954e-07       1.84785359e-06      -3.83634419e-06 
      -3.27120724e-07       1.84785343e-06      -3.83634350e-06 
       1.13985835e-07       1.84785338e-06      -3.83634417e-06 
       3.26110606e-07       1.84785354e-06      -3.83634487e-06 
      -1.14995954e-07       1.84785359e-06      -3.83634419e-06 
      -3.27120724e-07       1.84785343e-06      -3.83634350e-06 
       1.13985835e-07       1.84785338e-06      -3.83634417e-06 
       3.26110606e-07       1.84785354e-06      -3.83634487e-06 
      -1.23381322e-07       2.15396102e-06      -4.47301137e-06 
      -3.50813409e-07       2.15396083e-06      -4.47301061e-06 
       1.22310168e-07       2.15396082e-06      -4.47301139e-06 
       3.49742254e-07       2.15396100e-06      -4.47301215e-06 
      -1.23381322e-07       2.15396102e-06      -4.47301137e-06 
      -3.50813409e-07       2.15396083e-06      -4.47301061e-06 
       1.22310168e-07       2.15396082e-06      -4.47301139e-06 
       3.49742254e-07       2.15396100e-06      -4.47301215e-06 
      -1.31595773e-07       2.48114979e-06      -5.15379188e-06 
      -3.73996322e-07       2.48114959e-06      -5.15379104e-06 
       1.30463180e-07       2.48114960e-06      -5.15379193e-06 
       3.72863730e-07       2.48114981e-06      -5.15379276e-06 
      -1.31595773e-07       2.48114979e-06      -5.15379188e-06 
      -3.73996322e-07       2.48114959e-06      -5.15379104e-06 
       1.30463180e-07       2.48114960e-06      -5.15379193e-06 
       3.72863730e-07       2.48114981e-06      -5.15379276e-06 
      -1.39639300e-07       2.82894802e-06      -5.87773721e-06 
      -3.96669462e-07       2.82894779e-06      -5.87773630e-06 
       1.38444876e-07       2.82894784e-06      -5.87773730e-06 
       3.95475038e-07       2.82894807e-06      -5.87773821e-06 
      -1.39639300e-07       2.82894802e-06      -5.87773721e-06 
      -3.96669462e-07       2.82894779e-06      -5.87773630e-06 
       1.38444876e-07       2.82894784e-06      -5.87773730e-06 
       3.95475038e-07       2.82894807e-06      -5.87773821e-06 
      -1.47511902e-07       3.19688381e-06      -6.64389887e-06 
      -4.18832823e-07       3.19688356e-06      -6.64389788e-06 
       1.46255261e-07       3.19688364e-06      -6.64389900e-06 
       4.17576182e-07       3.19688390e-06      -6.64389998e-06 
      -1.47511902e-07       3.19688381e-06      -6.64389887e-06 
      -4.18832823e-07       3.19688356e-06      -6.64389788e-06 
       1.46255261e-07       3.19688364e-06      -6.64389900e-06 
       4.17576182e-07       3.19688390e-06      -6.64389998e-06 
      -1.55213571e-07       3.58448527e-06      -7.45132835e-06 
      -4.40486400e-07       3.58448499e-06      -7.45132729e-06 
       1.53894339e-07       3.58448511e-06      -7.45132852e-06 
       4.39167168e-07       3.58448540e-06      -7.45132958e-06 
      -1.55213571e-07       3.58448527e-06      -7.45132835e-06 
      -4.40486400e-07       3.58448499e-06      -7.45132729e-06 
       1.53894339e-07       3.58448511e-06      -7.45132852e-06 
       4.39167168e-07       3.58448540e-06      -7.45132958e-06 
      -1.62744306e-07       3.99128051e-06      -8.29907715e-06 
      -4.61630190e-07       3.99128020e-06      -8.29907601e-06 
       1.61362115e-07       3.99128036e-06      -8.29907737e-06 
       4.60247998e-07       3.99128067e-06      -8.29907850e-06 
      -1.62744306e-07       3.99128051e-06      -8.29907715e-06 
      -4.61630190e-07       3.99128020e-06      -8.29907601e-06 
       1.61362115e-07       3.99128036e-06      -8.29907737e-06 
       4.60247998e-07       3.99128067e-06      -8.29907850e-06 
      -1.70104101e-07       4.41679763e-06      -9.18619677e-06 
      -4.82264187e-07       4.41679729e-06      -9.18619556e-06 
       1.68658593e-07       4.41679749e-06      -9.18619704e-06 
       4.80818678e-07       4.41679783e-06      -9.18619825e-06 
      -1.70104101e-07       4.41679763e-06      -9.18619677e-06 
      -4.82264187e-07       4.41679729e-06      -9.18619556e-06 
       1.68658593e-07       4.41679749e-06      -9.18619704e-06 
       4.80818678e-07       4.41679783e-06      -9.18619825e-06 
      -1.77292952e-07       4.86056474e-06      -1.01117387e-05 
      -5.02388388e-07       4.86056437e-06      -1.01117374e-05 
       1.75783777e-07       4.86056461e-06      -1.01117390e-05 
       5.00879212e-07       4.86056498e-06      -1.01117403e-05 
      -1.77292953e-07       4.86056474e-06      -1.01117387e-05 
      -5.02388388e-07       4.86056437e-06      -1.01117374e-05 
       1.75783776e-07       4.86056461e-06      -1.01117390e-05 
       5.00879212e-07       4.86056498e-06      -1.01117403e-05 
      -1.84309358e-07       5.32211932e-06      -1.10747722e-05 
      -5.22021466e-07       5.32211892e-06      -1.10747708e-05 
       1.82757123e-07       5.32211921e-06      -1.10747726e-05 
       5.20469231e-07       5.32211961e-06      -1.10747739e-05 
      -1.84309358e-07       5.32211932e-06      -1.10747722e-05 
      -5.22021466e-07       5.32211892e-06      -1.10747708e-05 
       1.82757123e-07       5.32211921e-06      -1.10747726e-05 
       5.20469231e-07       5.32211961e-06      -1.10747739e-05 
      -1.91172822e-07       5.80103620e-06      -1.20744371e-05 
      -5.41202957e-07       5.80103577e-06      -1.20744356e-05 
       1.89577026e-07       5.80103611e-06      -1.20744375e-05 
       5.39607162e-07       5.80103654e-06      -1.20744389e-05 
      -1.91172822e-07       5.80103620e-06      -1.20744371e-05 
      -5.41202957e-07       5.80103577e-06      -1.20744356e-05 
       1.89577026e-07       5.80103611e-06      -1.20744375e-05 
       5.39607162e-07       5.80103654e-06      -1.20744389e-05 
      -1.97883336e-07       6.29689947e-06      -1.31098908e-05 
      -5.59932856e-07       6.29689901e-06      -1.31098892e-05 
       1.96243492e-07       6.29689941e-06      -1.31098912e-05 
       5.58293011e-07       6.29689987e-06      -1.31098927e-05 
      -1.97883336e-07       6.29689947e-06      -1.31098908e-05 
      -5.59932856e-07       6.29689901e-06      -1.31098892e-05 
       1.96243492e-07       6.29689941e-06      -1.31098912e-05 
       5.58293011e-07       6.29689987e-06      -1.31098927e-05 
      -2.04440898e-07       6.80929325e-06      -1.41802907e-05 
      -5.78211156e-07       6.80929276e-06      -1.41802891e-05 
       2.02756524e-07       6.80929321e-06      -1.41802912e-05 
       5.76526781e-07       6.80929370e-06      -1.41802928e-05 
      -2.04440898e-07       6.80929325e-06      -1.41802907e-05 
      -5.78211156e-07       6.80929276e-06      -1.41802891e-05 
       2.02756524e-07       6.80929321e-06      -1.41802912e-05 
       5.76526781e-07       6.80929370e-06      -1.41802928e-05 
      -2.10845500e-07       7.33780162e-06      -1.52847942e-05 
      -5.96037853e-07       7.33780110e-06      -1.52847926e-05 
       2.09116128e-07       7.33780161e-06      -1.52847948e-05 
       5.94308480e-07       7.33780212e-06      -1.52847965e-05 
      -2.10845500e-07       7.33780162e-06      -1.52847942e-05 
      -5.96037853e-07       7.33780110e-06      -1.52847926e-05 
       2.09116128e-07       7.33780161e-06      -1.52847948e-05 
       5.94308480e-07       7.33780212e-06      -1.52847965e-05 
      -2.17097138e-07       7.88200870e-06      -1.64225588e-05 
      -6.13412940e-07       7.88200815e-06      -1.64225571e-05 
       2.15322311e-07       7.88200871e-06      -1.64225595e-05 
       6.11638113e-07       7.88200925e-06      -1.64225612e-05 
      -2.17097138e-07       7.88200870e-06      -1.64225588e-05 
      -6.13412940e-07       7.88200815e-06      -1.64225571e-05 
       2.15322311e-07       7.88200871e-06      -1.64225595e-05 
       6.11638113e-07       7.88200925e-06      -1.64225612e-05 
      -2.23195803e-07       8.44149858e-06      -1.75927419e-05 
      -6.30336411e-07       8.44149800e-06      -1.75927401e-05 
       2.21375079e-07       8.44149861e-06      -1.75927426e-05 
       6.28515687e-07       8.44149919e-06      -1.75927445e-05 
      -2.23195803e-07       8.44149858e-06      -1.75927419e-05 
      -6.30336411e-07       8.44149800e-06      -1.75927401e-05 
       2.21375079e-07       8.44149861e-06      -1.75927426e-05 
       6.28515687e-07       8.44149919e-06      -1.75927445e-05 
      -2.29141491e-07       9.01585537e-06      -1.87945009e-05 
      -6.46808259e-07       9.01585476e-06      -1.87944991e-05 
       2.27274439e-07       9.01585542e-06      -1.87945017e-05 
       6.44941208e-07       9.01585603e-06      -1.87945036e-05 
      -2.29141491e-07       9.01585537e-06      -1.87945009e-05 
      -6.46808259e-07       9.01585476e-06      -1.87944991e-05 
       2.27274439e-07       9.01585542e-06      -1.87945017e-05 
       6.44941208e-07       9.01585603e-06      -1.87945036e-05 
      -2.34934196e-07       9.60466316e-06      -2.00269933e-05 
      -6.62828482e-07       9.60466252e-06      -2.00269913e-05 
       2.33020394e-07       9.60466324e-06      -2.00269941e-05 
       6.60914680e-07       9.60466387e-06      -2.00269961e-05 
      -2.34934196e-07       9.60466316e-06      -2.00269933e-05 
      -6.62828482e-07       9.60466252e-06      -2.00269913e-05 
       2.33020394e-07       9.60466324e-06      -2.00269941e-05 
       6.60914680e-07       9.60466387e-06      -2.00269961e-05 
      -2.40573913e-07       1.02075061e-05      -2.12893764e-05 
      -6.78397071e-07       1.02075054e-05      -2.12893744e-05 
       2.38612952e-07       1.02075062e-05      -2.12893773e-05 
       6.76436110e-07       1.02075068e-05      -2.12893793e-05 
      -2.40573913e-07       1.02075061e-05      -2.12893764e-05 
      -6.78397071e-07       1.02075054e-05      -2.12893744e-05 
       2.38612952e-07       1.02075062e-05      -2.12893773e-05 
       6.76436110e-07       1.02075068e-05      -2.12893793e-05 
      -2.46062509e-07       1.08239776e-05      -2.25808255e-05 
      -6.93536085e-07       1.08239769e-05      -2.25808234e-05 
       2.44068229e-07       1.08239777e-05      -2.25808264e-05 
       6.91541804e-07       1.08239784e-05      -2.25808285e-05 
      -2.46062509e-07       1.08239776e-05      -2.25808255e-05 
      -6.93536085e-07       1.08239769e-05      -2.25808234e-05 
       2.44068229e-07       1.08239777e-05      -2.25808264e-05 
       6.91541804e-07       1.08239784e-05      -2.25808285e-05 
      -2.51415957e-07       1.14537084e-05      -2.39005859e-05 
      -7.08281290e-07       1.14537076e-05      -2.39005838e-05 
       2.49387870e-07       1.14537085e-05      -2.39005870e-05 
       7.06253202e-07       1.14537093e-05      -2.39005891e-05 
      -2.51415957e-07       1.14537084e-05      -2.39005859e-05 
      -7.08281290e-07       1.14537076e-05      -2.39005838e-05 
       2.49387870e-07       1.14537085e-05      -2.39005870e-05 
       7.06253202e-07       1.14537093e-05      -2.39005891e-05 
      -2.56634252e-07       1.20963382e-05      -2.52479205e-05 
      -7.22632679e-07       1.20963375e-05      -2.52479182e-05 
       2.54571884e-07       1.20963384e-05      -2.52479216e-05 
       7.20570310e-07       1.20963392e-05      -2.52479238e-05 
      -2.56634252e-07       1.20963382e-05      -2.52479205e-05 
      -7.22632679e-07       1.20963375e-05      -2.52479182e-05 
       2.54571884e-07       1.20963384e-05      -2.52479216e-05 
       7.20570310e-07       1.20963392e-05      -2.52479238e-05 
      -2.61717387e-07       1.27515069e-05      -2.66220918e-05 
      -7.36590247e-07       1.27515061e-05      -2.66220895e-05 
       2.59620273e-07       1.27515071e-05      -2.66220929e-05 
       7.34493133e-07       1.27515079e-05      -2.66220952e-05 
      -2.61717387e-07       1.27515069e-05      -2.66220918e-05 
      -7.36590247e-07       1.27515061e-05      -2.66220895e-05 
       2.59620273e-07       1.27515071e-05      -2.66220929e-05 
       7.34493133e-07       1.27515079e-05      -2.66220952e-05 
      -2.66665356e-07       1.34188542e-05      -2.80223625e-05 
      -7.50153988e-07       1.34188534e-05      -2.80223601e-05 
       2.64533046e-07       1.34188544e-05      -2.80223637e-05 
       7.48021678e-07       1.34188552e-05      -2.80223661e-05 
      -2.66665356e-07       1.34188542e-05      -2.80223625e-05 
      -7.50153988e-07       1.34188534e-05      -2.80223601e-05 
       2.64533046e-07       1.34188544e-05      -2.80223637e-05 
       7.48021678e-07       1.34188552e-05      -2.80223661e-05 
      -2.71478153e-07       1.40980199e-05      -2.94479954e-05 
      -7.63323894e-07       1.40980190e-05      -2.94479929e-05 
       2.69310211e-07       1.40980201e-05      -2.94479967e-05 
       7.61155952e-07       1.40980210e-05      -2.94479991e-05 
      -2.71478153e-07       1.40980199e-05      -2.94479954e-05 
      -7.63323894e-07       1.40980190e-05      -2.94479929e-05 
       2.69310211e-07       1.40980201e-05      -2.94479967e-05 
       7.61155952e-07       1.40980210e-05      -2.94479991e-05 
      -2.76155769e-07       1.47886437e-05      -3.08982531e-05 
      -7.76099959e-07       1.47886429e-05      -3.08982506e-05 
       2.73951771e-07       1.47886440e-05      -3.08982544e-05 
       7.73895961e-07       1.47886449e-05      -3.08982569e-05 
      -2.76155769e-07       1.47886437e-05      -3.08982531e-05 
      -7.76099959e-07       1.47886429e-05      -3.08982506e-05 
       2.73951771e-07       1.47886440e-05      -3.08982544e-05 
       7.73895961e-07       1.47886449e-05      -3.08982569e-05 
      -2.80698200e-07       1.54903656e-05      -3.23723982e-05 
      -7.88482176e-07       1.54903647e-05      -3.23723957e-05 
       2.78457735e-07       1.54903659e-05      -3.23723996e-05 
       7.86241712e-07       1.54903668e-05      -3.23724022e-05 
      -2.80698200e-07       1.54903656e-05      -3.23723982e-05 
      -7.88482176e-07       1.54903647e-05      -3.23723957e-05 