# vtk DataFile Version 2.0
./output/onsasExample_BladeCantileverBeamNoPitch_windVel3DDynamic 3D/onsasExample_BladeCantileverBeamNoPitch_windVel3DDynamic 3D_0173.vtk
ASCII
DATASET UNSTRUCTURED_GRID

POINTS 800 float
       5.193160e-24      -7.180703e-02      -7.180703e-02 
      -9.468475e-25       7.180703e-02      -7.180703e-02 
      -5.193160e-24       7.180703e-02       7.180703e-02 
       9.468475e-25      -7.180703e-02       7.180703e-02 
       2.000000e-01      -7.180702e-02      -7.180706e-02 
       2.000000e-01       7.180705e-02      -7.180706e-02 
       2.000000e-01       7.180705e-02       7.180701e-02 
       2.000000e-01      -7.180702e-02       7.180701e-02 
       2.000000e-01      -7.180702e-02      -7.180706e-02 
       2.000000e-01       7.180705e-02      -7.180706e-02 
       2.000000e-01       7.180705e-02       7.180701e-02 
       2.000000e-01      -7.180702e-02       7.180701e-02 
       4.000000e-01      -7.180698e-02      -7.180713e-02 
       3.999999e-01       7.180709e-02      -7.180713e-02 
       4.000000e-01       7.180709e-02       7.180694e-02 
       4.000001e-01      -7.180698e-02       7.180694e-02 
       4.000000e-01      -7.180698e-02      -7.180713e-02 
       3.999999e-01       7.180709e-02      -7.180713e-02 
       4.000000e-01       7.180709e-02       7.180694e-02 
       4.000001e-01      -7.180698e-02       7.180694e-02 
       6.000000e-01      -7.180691e-02      -7.180725e-02 
       5.999999e-01       7.180716e-02      -7.180725e-02 
       6.000000e-01       7.180716e-02       7.180681e-02 
       6.000001e-01      -7.180691e-02       7.180681e-02 
       6.000000e-01      -7.180691e-02      -7.180725e-02 
       5.999999e-01       7.180716e-02      -7.180725e-02 
       6.000000e-01       7.180716e-02       7.180681e-02 
       6.000001e-01      -7.180691e-02       7.180681e-02 
       8.000000e-01      -7.180682e-02      -7.180742e-02 
       7.999999e-01       7.180725e-02      -7.180742e-02 
       8.000000e-01       7.180725e-02       7.180665e-02 
       8.000001e-01      -7.180682e-02       7.180665e-02 
       8.000000e-01      -7.180682e-02      -7.180742e-02 
       7.999999e-01       7.180725e-02      -7.180742e-02 
       8.000000e-01       7.180725e-02       7.180665e-02 
       8.000001e-01      -7.180682e-02       7.180665e-02 
       1.000000e+00      -7.180670e-02      -7.180763e-02 
       9.999999e-01       7.180737e-02      -7.180763e-02 
       1.000000e+00       7.180737e-02       7.180644e-02 
       1.000000e+00      -7.180670e-02       7.180644e-02 
       1.000000e+00      -7.180670e-02      -7.180763e-02 
       9.999999e-01       7.180737e-02      -7.180763e-02 
       1.000000e+00       7.180737e-02       7.180644e-02 
       1.000000e+00      -7.180670e-02       7.180644e-02 
       1.200000e+00      -7.180655e-02      -7.180789e-02 
       1.200000e+00       7.180752e-02      -7.180789e-02 
       1.200000e+00       7.180752e-02       7.180618e-02 
       1.200000e+00      -7.180655e-02       7.180618e-02 
       1.200000e+00      -7.180655e-02      -7.180789e-02 
       1.200000e+00       7.180752e-02      -7.180789e-02 
       1.200000e+00       7.180752e-02       7.180618e-02 
       1.200000e+00      -7.180655e-02       7.180618e-02 
       1.400000e+00      -7.180638e-02      -7.180819e-02 
       1.400000e+00       7.180768e-02      -7.180819e-02 
       1.400000e+00       7.180768e-02       7.180588e-02 
       1.400000e+00      -7.180638e-02       7.180588e-02 
       1.400000e+00      -7.180638e-02      -7.180819e-02 
       1.400000e+00       7.180768e-02      -7.180819e-02 
       1.400000e+00       7.180768e-02       7.180588e-02 
       1.400000e+00      -7.180638e-02       7.180588e-02 
       1.600000e+00      -7.180619e-02      -7.180853e-02 
       1.600000e+00       7.180788e-02      -7.180853e-02 
       1.600000e+00       7.180788e-02       7.180553e-02 
       1.600000e+00      -7.180619e-02       7.180553e-02 
       1.600000e+00      -7.180619e-02      -7.180853e-02 
       1.600000e+00       7.180788e-02      -7.180853e-02 
       1.600000e+00       7.180788e-02       7.180553e-02 
       1.600000e+00      -7.180619e-02       7.180553e-02 
       1.800000e+00      -7.180597e-02      -7.180892e-02 
       1.800000e+00       7.180810e-02      -7.180892e-02 
       1.800000e+00       7.180810e-02       7.180515e-02 
       1.800000e+00      -7.180597e-02       7.180515e-02 
       1.800000e+00      -7.180597e-02      -7.180892e-02 
       1.800000e+00       7.180810e-02      -7.180892e-02 
       1.800000e+00       7.180810e-02       7.180515e-02 
       1.800000e+00      -7.180597e-02       7.180515e-02 
       2.000000e+00      -7.180573e-02      -7.180934e-02 
       2.000000e+00       7.180834e-02      -7.180934e-02 
       2.000000e+00       7.180834e-02       7.180472e-02 
       2.000000e+00      -7.180573e-02       7.180472e-02 
       2.000000e+00      -7.180573e-02      -7.180934e-02 
       2.000000e+00       7.180834e-02      -7.180934e-02 
       2.000000e+00       7.180834e-02       7.180472e-02 
       2.000000e+00      -7.180573e-02       7.180472e-02 
       2.200000e+00      -7.180547e-02      -7.180981e-02 
       2.200000e+00       7.180860e-02      -7.180981e-02 
       2.200000e+00       7.180860e-02       7.180426e-02 
       2.200000e+00      -7.180547e-02       7.180426e-02 
       2.200000e+00      -7.180547e-02      -7.180981e-02 
       2.200000e+00       7.180860e-02      -7.180981e-02 
       2.200000e+00       7.180860e-02       7.180426e-02 
       2.200000e+00      -7.180547e-02       7.180426e-02 
       2.400000e+00      -7.180518e-02      -7.181031e-02 
       2.400000e+00       7.180888e-02      -7.181031e-02 
       2.400000e+00       7.180888e-02       7.180375e-02 
       2.400000e+00      -7.180518e-02       7.180375e-02 
       2.400000e+00      -7.180518e-02      -7.181031e-02 
       2.400000e+00       7.180888e-02      -7.181031e-02 
       2.400000e+00       7.180888e-02       7.180375e-02 
       2.400000e+00      -7.180518e-02       7.180375e-02 
       2.600000e+00      -7.180487e-02      -7.181086e-02 
       2.600000e+00       7.180919e-02      -7.181086e-02 
       2.600000e+00       7.180919e-02       7.180321e-02 
       2.600000e+00      -7.180487e-02       7.180321e-02 
       2.600000e+00      -7.180487e-02      -7.181086e-02 
       2.600000e+00       7.180919e-02      -7.181086e-02 
       2.600000e+00       7.180919e-02       7.180321e-02 
       2.600000e+00      -7.180487e-02       7.180321e-02 
       2.800000e+00      -7.180455e-02      -7.181143e-02 
       2.800000e+00       7.180952e-02      -7.181143e-02 
       2.800000e+00       7.180952e-02       7.180263e-02 
       2.800000e+00      -7.180455e-02       7.180263e-02 
       2.800000e+00      -7.180455e-02      -7.181143e-02 
       2.800000e+00       7.180952e-02      -7.181143e-02 
       2.800000e+00       7.180952e-02       7.180263e-02 
       2.800000e+00      -7.180455e-02       7.180263e-02 
       3.000000e+00      -7.180420e-02      -7.181205e-02 
       3.000000e+00       7.180987e-02      -7.181205e-02 
       3.000000e+00       7.180987e-02       7.180202e-02 
       3.000000e+00      -7.180420e-02       7.180202e-02 
       3.000000e+00      -7.180420e-02      -7.181205e-02 
       3.000000e+00       7.180987e-02      -7.181205e-02 
       3.000000e+00       7.180987e-02       7.180202e-02 
       3.000000e+00      -7.180420e-02       7.180202e-02 
       3.200000e+00      -7.180383e-02      -7.181270e-02 
       3.200000e+00       7.181024e-02      -7.181270e-02 
       3.200000e+00       7.181024e-02       7.180136e-02 
       3.200000e+00      -7.180383e-02       7.180136e-02 
       3.200000e+00      -7.180383e-02      -7.181270e-02 
       3.200000e+00       7.181024e-02      -7.181270e-02 
       3.200000e+00       7.181024e-02       7.180136e-02 
       3.200000e+00      -7.180383e-02       7.180136e-02 
       3.400000e+00      -7.180344e-02      -7.181339e-02 
       3.400000e+00       7.181063e-02      -7.181339e-02 
       3.400000e+00       7.181063e-02       7.180068e-02 
       3.400000e+00      -7.180344e-02       7.180068e-02 
       3.400000e+00      -7.180344e-02      -7.181339e-02 
       3.400000e+00       7.181063e-02      -7.181339e-02 
       3.400000e+00       7.181063e-02       7.180068e-02 
       3.400000e+00      -7.180344e-02       7.180068e-02 
       3.600000e+00      -7.180303e-02      -7.181411e-02 
       3.600000e+00       7.181103e-02      -7.181411e-02 
       3.600000e+00       7.181103e-02       7.179996e-02 
       3.600000e+00      -7.180303e-02       7.179996e-02 
       3.600000e+00      -7.180303e-02      -7.181411e-02 
       3.600000e+00       7.181103e-02      -7.181411e-02 
       3.600000e+00       7.181103e-02       7.179996e-02 
       3.600000e+00      -7.180303e-02       7.179996e-02 
       3.800000e+00      -7.180261e-02      -7.181486e-02 
       3.800000e+00       7.181146e-02      -7.181486e-02 
       3.800000e+00       7.181146e-02       7.179921e-02 
       3.800000e+00      -7.180261e-02       7.179921e-02 
       3.800000e+00      -7.180261e-02      -7.181486e-02 
       3.800000e+00       7.181146e-02      -7.181486e-02 
       3.800000e+00       7.181146e-02       7.179921e-02 
       3.800000e+00      -7.180261e-02       7.179921e-02 
       4.000000e+00      -7.180216e-02      -7.181564e-02 
       4.000000e+00       7.181190e-02      -7.181564e-02 
       4.000000e+00       7.181190e-02       7.179843e-02 
       4.000000e+00      -7.180216e-02       7.179843e-02 
       4.000000e+00      -7.180216e-02      -7.181564e-02 
       4.000000e+00       7.181190e-02      -7.181564e-02 
       4.000000e+00       7.181190e-02       7.179843e-02 
       4.000000e+00      -7.180216e-02       7.179843e-02 
       4.200000e+00      -7.180170e-02      -7.181645e-02 
[...]
POINT_DATA       800 
VECTORS Displacements float
       5.19316044e-24       0.00000000e+00       0.00000000e+00 
      -9.46847487e-25       0.00000000e+00      -1.38777878e-17 
      -5.19316044e-24       0.00000000e+00       0.00000000e+00 
       9.46847487e-25       0.00000000e+00       1.38777878e-17 
      -7.73010250e-09       1.38277812e-08      -2.45740318e-08 
      -2.75254879e-08       1.38277799e-08      -2.45740036e-08 
       7.64908251e-09       1.38277565e-08      -2.45740079e-08 
       2.74444679e-08       1.38277578e-08      -2.45740361e-08 
      -7.73010250e-09       1.38277812e-08      -2.45740318e-08 
      -2.75254879e-08       1.38277799e-08      -2.45740036e-08 
       7.64908251e-09       1.38277565e-08      -2.45740079e-08 
       2.74444679e-08       1.38277578e-08      -2.45740361e-08 
      -1.52984498e-08       5.49588456e-08      -9.76433594e-08 
      -5.45098064e-08       5.49588403e-08      -9.76432982e-08 
       1.51362622e-08       5.49587981e-08      -9.76433151e-08 
       5.43476188e-08       5.49588035e-08      -9.76433762e-08 
      -1.52984498e-08       5.49588456e-08      -9.76433594e-08 
      -5.45098064e-08       5.49588403e-08      -9.76432982e-08 
       1.51362622e-08       5.49587981e-08      -9.76433151e-08 
       5.43476188e-08       5.49588035e-08      -9.76433762e-08 
      -2.27050404e-08       1.22864813e-07      -2.18228869e-07 
      -8.09529539e-08       1.22864801e-07      -2.18228771e-07 
       2.24615406e-08       1.22864745e-07      -2.18228808e-07 
       8.07094541e-08       1.22864756e-07      -2.18228907e-07 
      -2.27050404e-08       1.22864813e-07      -2.18228869e-07 
      -8.09529539e-08       1.22864801e-07      -2.18228771e-07 
       2.24615406e-08       1.22864745e-07      -2.18228808e-07 
       8.07094541e-08       1.22864756e-07      -2.18228907e-07 
      -2.99498730e-08       2.17017303e-07      -3.85351448e-07 
      -1.06854929e-07       2.17017282e-07      -3.85351309e-07 
       2.96249189e-08       2.17017216e-07      -3.85351373e-07 
       1.06529975e-07       2.17017236e-07      -3.85351513e-07 
      -2.99498730e-08       2.17017303e-07      -3.85351448e-07 
      -1.06854929e-07       2.17017282e-07      -3.85351309e-07 
       2.96249189e-08       2.17017216e-07      -3.85351373e-07 
       1.06529975e-07       2.17017236e-07      -3.85351513e-07 
      -3.70329459e-08       3.36887935e-07      -5.98031983e-07 
      -1.32215731e-07       3.36887904e-07      -5.98031798e-07 
       3.66263990e-08       3.36887830e-07      -5.98031897e-07 
       1.31809184e-07       3.36887862e-07      -5.98032083e-07 
      -3.70329459e-08       3.36887935e-07      -5.98031983e-07 
      -1.32215731e-07       3.36887904e-07      -5.98031798e-07 
       3.66263990e-08       3.36887830e-07      -5.98031897e-07 
       1.31809184e-07       3.36887862e-07      -5.98032083e-07 
      -4.39542576e-08       4.81948330e-07      -8.55291361e-07 
      -1.57035356e-07       4.81948285e-07      -8.55291127e-07 
       4.34659821e-08       4.81948209e-07      -8.55291267e-07 
       1.56547081e-07       4.81948254e-07      -8.55291501e-07 
      -4.39542576e-08       4.81948330e-07      -8.55291361e-07 
      -1.57035356e-07       4.81948285e-07      -8.55291127e-07 
       4.34659821e-08       4.81948209e-07      -8.55291267e-07 
       1.56547081e-07       4.81948254e-07      -8.55291501e-07 
      -5.07138067e-08       6.51670106e-07      -1.15615047e-06 
      -1.81313806e-07       6.51670047e-07      -1.15615018e-06 
       5.01436694e-08       6.51669971e-07      -1.15615037e-06 
       1.80743668e-07       6.51670030e-07      -1.15615065e-06 
      -5.07138067e-08       6.51670106e-07      -1.15615047e-06 
      -1.81313806e-07       6.51670047e-07      -1.15615018e-06 
       5.01436694e-08       6.51669971e-07      -1.15615037e-06 
       1.80743668e-07       6.51670030e-07      -1.15615065e-06 
      -5.73115919e-08       8.45524884e-07      -1.49963019e-06 
      -2.05051077e-07       8.45524808e-07      -1.49962985e-06 
       5.66594631e-08       8.45524736e-07      -1.49963009e-06 
       2.04398948e-07       8.45524812e-07      -1.49963043e-06 
      -5.73115919e-08       8.45524884e-07      -1.49963019e-06 
      -2.05051077e-07       8.45524808e-07      -1.49962985e-06 
       5.66594631e-08       8.45524736e-07      -1.49963009e-06 
       2.04398948e-07       8.45524812e-07      -1.49963043e-06 
      -6.37476112e-08       1.06298428e-06      -1.88475142e-06 
      -2.28247168e-07       1.06298419e-06      -1.88475102e-06 
       6.30133643e-08       1.06298412e-06      -1.88475131e-06 
       2.27512921e-07       1.06298422e-06      -1.88475171e-06 
      -6.37476112e-08       1.06298428e-06      -1.88475142e-06 
      -2.28247168e-07       1.06298419e-06      -1.88475102e-06 
       6.30133643e-08       1.06298412e-06      -1.88475131e-06 
       2.27512921e-07       1.06298422e-06      -1.88475171e-06 
      -7.00218641e-08       1.30351992e-06      -2.31053503e-06 
      -2.50902078e-07       1.30351981e-06      -2.31053457e-06 
       6.92053743e-08       1.30351975e-06      -2.31053493e-06 
       2.50085588e-07       1.30351987e-06      -2.31053539e-06 
      -7.00218639e-08       1.30351992e-06      -2.31053503e-06 
      -2.50902078e-07       1.30351981e-06      -2.31053457e-06 
       6.92053743e-08       1.30351975e-06      -2.31053493e-06 
       2.50085588e-07       1.30351987e-06      -2.31053539e-06 
      -7.61292647e-08       1.56661229e-06      -2.77601912e-06 
      -2.73030014e-07       1.56661215e-06      -2.77601861e-06 
       7.52590057e-08       1.56661212e-06      -2.77601903e-06 
       2.72159754e-07       1.56661226e-06      -2.77601954e-06 
      -7.61292647e-08       1.56661229e-06      -2.77601912e-06 
      -2.73030014e-07       1.56661215e-06      -2.77601861e-06 
       7.52590057e-08       1.56661212e-06      -2.77601903e-06 
       2.72159754e-07       1.56661226e-06      -2.77601954e-06 
      -8.20943806e-08       1.85177837e-06      -3.28031426e-06 
      -2.94675556e-07       1.85177822e-06      -3.28031370e-06 
       8.11700294e-08       1.85177821e-06      -3.28031419e-06 
       2.93751205e-07       1.85177836e-06      -3.28031475e-06 
      -8.20943806e-08       1.85177837e-06      -3.28031426e-06 
      -2.94675556e-07       1.85177822e-06      -3.28031370e-06 
       8.11700294e-08       1.85177821e-06      -3.28031419e-06 
       2.93751205e-07       1.85177836e-06      -3.28031475e-06 
      -8.79172091e-08       2.15854453e-06      -3.82255007e-06 
      -3.15838704e-07       2.15854435e-06      -3.82254945e-06 
       8.69384489e-08       2.15854437e-06      -3.82255001e-06 
       3.14859944e-07       2.15854455e-06      -3.82255064e-06 
      -8.79172091e-08       2.15854453e-06      -3.82255007e-06 
      -3.15838704e-07       2.15854435e-06      -3.82254945e-06 
       8.69384489e-08       2.15854437e-06      -3.82255001e-06 
       3.14859944e-07       2.15854455e-06      -3.82255064e-06 
      -9.35977451e-08       2.48643712e-06      -4.40185616e-06 
      -3.36519451e-07       2.48643692e-06      -4.40185548e-06 
       9.25642683e-08       2.48643696e-06      -4.40185612e-06 
       3.35485974e-07       2.48643717e-06      -4.40185680e-06 
      -9.35977451e-08       2.48643712e-06      -4.40185616e-06 
      -3.36519451e-07       2.48643692e-06      -4.40185548e-06 
       9.25642683e-08       2.48643696e-06      -4.40185612e-06 
       3.35485974e-07       2.48643717e-06      -4.40185680e-06 
      -9.91359865e-08       2.83498250e-06      -5.01736213e-06 
      -3.56717795e-07       2.83498227e-06      -5.01736139e-06 
       9.80474901e-08       2.83498235e-06      -5.01736211e-06 
       3.55629298e-07       2.83498258e-06      -5.01736285e-06 
      -9.91359865e-08       2.83498250e-06      -5.01736213e-06 
      -3.56717795e-07       2.83498227e-06      -5.01736139e-06 
       9.80474901e-08       2.83498235e-06      -5.01736211e-06 
       3.55629298e-07       2.83498258e-06      -5.01736285e-06 
      -1.04531929e-07       3.20370703e-06      -5.66819760e-06 
      -3.76433731e-07       3.20370678e-06      -5.66819680e-06 
       1.03388119e-07       3.20370689e-06      -5.66819761e-06 
       3.75289922e-07       3.20370714e-06      -5.66819840e-06 
      -1.04531929e-07       3.20370703e-06      -5.66819760e-06 
      -3.76433731e-07       3.20370678e-06      -5.66819680e-06 
       1.03388119e-07       3.20370689e-06      -5.66819761e-06 
       3.75289922e-07       3.20370714e-06      -5.66819840e-06 
      -1.09785568e-07       3.59213707e-06      -6.35349219e-06 
      -3.95667258e-07       3.59213679e-06      -6.35349133e-06 
       1.08586158e-07       3.59213693e-06      -6.35349221e-06 
       3.94467847e-07       3.59213721e-06      -6.35349307e-06 
      -1.09785568e-07       3.59213707e-06      -6.35349219e-06 
      -3.95667258e-07       3.59213679e-06      -6.35349133e-06 
       1.08586158e-07       3.59213693e-06      -6.35349221e-06 
       3.94467847e-07       3.59213721e-06      -6.35349307e-06 
      -1.14896902e-07       3.99979898e-06      -7.07237549e-06 
      -4.14418369e-07       3.99979866e-06      -7.07237457e-06 
       1.13641611e-07       3.99979884e-06      -7.07237554e-06 
       4.13163079e-07       3.99979915e-06      -7.07237646e-06 
      -1.14896902e-07       3.99979898e-06      -7.07237549e-06 
      -4.14418369e-07       3.99979866e-06      -7.07237457e-06 
       1.13641611e-07       3.99979884e-06      -7.07237554e-06 
       4.13163079e-07       3.99979915e-06      -7.07237646e-06 
      -1.19865926e-07       4.42621910e-06      -7.82397713e-06 
      -4.32687064e-07       4.42621876e-06      -7.82397614e-06 
       1.18554482e-07       4.42621897e-06      -7.82397720e-06 
       4.31375619e-07       4.42621932e-06      -7.82397819e-06 
      -1.19865926e-07       4.42621910e-06      -7.82397713e-06 
      -4.32687064e-07       4.42621876e-06      -7.82397614e-06 
       1.18554482e-07       4.42621897e-06      -7.82397720e-06 
       4.31375619e-07       4.42621932e-06      -7.82397819e-06 
      -1.24692637e-07       4.87092381e-06      -8.60742672e-06 
      -4.50473337e-07       4.87092344e-06      -8.60742566e-06 
       1.23324774e-07       4.87092369e-06      -8.60742681e-06 
       4.49105473e-07       4.87092406e-06      -8.60742786e-06 
      -1.24692637e-07       4.87092381e-06      -8.60742672e-06 
      -4.50473337e-07       4.87092344e-06      -8.60742566e-06 
       1.23324774e-07       4.87092369e-06      -8.60742681e-06 
       4.49105473e-07       4.87092406e-06      -8.60742786e-06 
      -1.29376806e-07       5.33344854e-06      -9.42187208e-06 
      -4.67796617e-07       5.33344814e-06      -9.42187096e-06 
       1.27972418e-07       5.33344843e-06      -9.42187220e-06 
       4.66392230e-07       5.33344883e-06      -9.42187331e-06 
      -1.29376806e-07       5.33344854e-06      -9.42187208e-06 
      -4.67796617e-07       5.33344814e-06      -9.42187096e-06 
       1.27972418e-07       5.33344843e-06      -9.42187220e-06 
       4.66392230e-07       5.33344883e-06      -9.42187331e-06 
      -1.33938447e-07       5.81336560e-06      -1.02665345e-05 
      -4.84696982e-07       5.81336517e-06      -1.02665334e-05 
       1.32497157e-07       5.81336550e-06      -1.02665347e-05 
       4.83255691e-07       5.81336593e-06      -1.02665359e-05 
      -1.33938447e-07       5.81336560e-06      -1.02665345e-05 
      -4.84696982e-07       5.81336517e-06      -1.02665334e-05 
       1.32497157e-07       5.81336550e-06      -1.02665347e-05 
       4.83255691e-07       5.81336593e-06      -1.02665359e-05 
      -1.38377553e-07       6.31025666e-06      -1.11406540e-05 
      -5.01174424e-07       6.31025620e-06      -1.11406528e-05 
       1.36898995e-07       6.31025658e-06      -1.11406542e-05 
       4.99695866e-07       6.31025704e-06      -1.11406554e-05 
      -1.38377553e-07       6.31025666e-06      -1.11406540e-05 
      -5.01174424e-07       6.31025620e-06      -1.11406528e-05 
       1.36898995e-07       6.31025658e-06      -1.11406542e-05 
       4.99695866e-07       6.31025704e-06      -1.11406554e-05 
      -1.42694122e-07       6.82370340e-06      -1.20434703e-05 
      -5.17228941e-07       6.82370291e-06      -1.20434691e-05 
       1.41177935e-07       6.82370334e-06      -1.20434706e-05 
       5.15712753e-07       6.82370383e-06      -1.20434719e-05 
      -1.42694122e-07       6.82370340e-06      -1.20434703e-05 
      -5.17228941e-07       6.82370291e-06      -1.20434691e-05 
       1.41177935e-07       6.82370334e-06      -1.20434706e-05 
       5.15712753e-07       6.82370383e-06      -1.20434719e-05 
      -1.46888149e-07       7.35328749e-06      -1.29742234e-05 
      -5.32860527e-07       7.35328698e-06      -1.29742221e-05 
       1.45333983e-07       7.35328745e-06      -1.29742237e-05 
       5.31306362e-07       7.35328796e-06      -1.29742250e-05 
      -1.46888149e-07       7.35328749e-06      -1.29742234e-05 
      -5.32860527e-07       7.35328698e-06      -1.29742221e-05 
       1.45333983e-07       7.35328745e-06      -1.29742237e-05 
       5.31306362e-07       7.35328796e-06      -1.29742250e-05 
      -1.50959628e-07       7.89859061e-06      -1.39321531e-05 
      -5.48069178e-07       7.89859006e-06      -1.39321517e-05 
       1.49367144e-07       7.89859058e-06      -1.39321534e-05 
       5.46476694e-07       7.89859113e-06      -1.39321548e-05 
      -1.50959628e-07       7.89859061e-06      -1.39321531e-05 
      -5.48069178e-07       7.89859006e-06      -1.39321517e-05 
       1.49367144e-07       7.89859058e-06      -1.39321534e-05 
       5.46476694e-07       7.89859113e-06      -1.39321548e-05 
      -1.54908554e-07       8.45919443e-06      -1.49164993e-05 
      -5.62854888e-07       8.45919385e-06      -1.49164978e-05 
       1.53277421e-07       8.45919441e-06      -1.49164996e-05 
       5.61223755e-07       8.45919499e-06      -1.49165011e-05 
      -1.54908554e-07       8.45919443e-06      -1.49164993e-05 
      -5.62854888e-07       8.45919385e-06      -1.49164978e-05 
       1.53277421e-07       8.45919441e-06      -1.49164996e-05 
       5.61223755e-07       8.45919499e-06      -1.49165011e-05 
      -1.58734923e-07       9.03468062e-06      -1.59265018e-05 
      -5.77217653e-07       9.03468001e-06      -1.59265003e-05 
       1.57064822e-07       9.03468062e-06      -1.59265022e-05 
       5.75547553e-07       9.03468123e-06      -1.59265037e-05 
      -1.58734923e-07       9.03468062e-06      -1.59265018e-05 
      -5.77217653e-07       9.03468001e-06      -1.59265003e-05 
       1.57064822e-07       9.03468062e-06      -1.59265022e-05 
       5.75547553e-07       9.03468123e-06      -1.59265037e-05 
      -1.62438732e-07       9.62463086e-06      -1.69614006e-05 
      -5.91157470e-07       9.62463022e-06      -1.69613990e-05 
       1.60729349e-07       9.62463087e-06      -1.69614010e-05 
       5.89448087e-07       9.62463151e-06      -1.69614026e-05 
      -1.62438732e-07       9.62463086e-06      -1.69614006e-05 
      -5.91157470e-07       9.62463022e-06      -1.69613990e-05 
       1.60729349e-07       9.62463087e-06      -1.69614010e-05 
       5.89448087e-07       9.62463151e-06      -1.69614026e-05 
      -1.66019974e-07       1.02286268e-05      -1.80204356e-05 
      -6.04674332e-07       1.02286261e-05      -1.80204339e-05 
       1.64271006e-07       1.02286268e-05      -1.80204360e-05 
       6.02925365e-07       1.02286275e-05      -1.80204376e-05 
      -1.66019974e-07       1.02286268e-05      -1.80204356e-05 
      -6.04674332e-07       1.02286261e-05      -1.80204339e-05 
       1.64271007e-07       1.02286268e-05      -1.80204360e-05 
       6.02925365e-07       1.02286275e-05      -1.80204376e-05 
      -1.69481873e-07       1.08462594e-05      -1.91028651e-05 
      -6.17791334e-07       1.08462587e-05      -1.91028634e-05 
       1.67706657e-07       1.08462594e-05      -1.91028656e-05 
       6.16016117e-07       1.08462601e-05      -1.91028673e-05 
      -1.69481873e-07       1.08462594e-05      -1.91028651e-05 
      -6.17791334e-07       1.08462587e-05      -1.91028634e-05 
       1.67706657e-07       1.08462594e-05      -1.91028656e-05 
       6.16016117e-07       1.08462601e-05      -1.91028673e-05 
      -1.72840733e-07       1.14771565e-05      -2.02080212e-05 
      -6.30544848e-07       1.14771557e-05      -2.02080194e-05 
       1.71038912e-07       1.14771565e-05      -2.02080216e-05 
       6.28743027e-07       1.14771572e-05      -2.02080234e-05 
      -1.72840733e-07       1.14771565e-05      -2.02080212e-05 
      -6.30544848e-07       1.14771557e-05      -2.02080194e-05 
       1.71038912e-07       1.14771565e-05      -2.02080216e-05 
       6.28743027e-07       1.14771572e-05      -2.02080234e-05 
      -1.76096545e-07       1.21209554e-05      -2.13352535e-05 
      -6.42934870e-07       1.21209546e-05      -2.13352517e-05 
       1.74267774e-07       1.21209555e-05      -2.13352540e-05 
       6.41106099e-07       1.21209562e-05      -2.13352558e-05 
      -1.76096545e-07       1.21209554e-05      -2.13352535e-05 
      -6.42934870e-07       1.21209546e-05      -2.13352517e-05 
       1.74267774e-07       1.21209555e-05      -2.13352540e-05 
       6.41106099e-07       1.21209562e-05      -2.13352558e-05 
      -1.79249308e-07       1.27772935e-05      -2.24839119e-05 
      -6.54961394e-07       1.27772927e-05      -2.24839101e-05 
       1.77393249e-07       1.27772936e-05      -2.24839125e-05 
       6.53105336e-07       1.27772944e-05      -2.24839144e-05 
      -1.79249308e-07       1.27772935e-05      -2.24839119e-05 
      -6.54961394e-07       1.27772927e-05      -2.24839101e-05 
       1.77393249e-07       1.27772936e-05      -2.24839125e-05 
       6.53105336e-07       1.27772944e-05      -2.24839144e-05 
      -1.82299016e-07       1.34458080e-05      -2.36533463e-05 
      -6.66624418e-07       1.34458072e-05      -2.36533443e-05 
       1.80415341e-07       1.34458081e-05      -2.36533468e-05 
       6.64740744e-07       1.34458089e-05      -2.36533488e-05 
      -1.82299016e-07       1.34458080e-05      -2.36533463e-05 
      -6.66624418e-07       1.34458072e-05      -2.36533443e-05 
       1.80415341e-07       1.34458081e-05      -2.36533468e-05 
       6.64740744e-07       1.34458089e-05      -2.36533488e-05 
      -1.85245662e-07       1.41261362e-05      -2.48429063e-05 
      -6.77923934e-07       1.41261354e-05      -2.48429043e-05 
       1.83334056e-07       1.41261364e-05      -2.48429069e-05 
       6.76012329e-07       1.41261372e-05      -2.48429089e-05 
      -1.85245662e-07       1.41261362e-05      -2.48429063e-05 
      -6.77923934e-07       1.41261354e-05      -2.48429043e-05 
       1.83334056e-07       1.41261364e-05      -2.48429069e-05 
       6.76012329e-07       1.41261372e-05      -2.48429089e-05 
      -1.88089243e-07       1.48179155e-05      -2.60519419e-05 
      -6.88859938e-07       1.48179147e-05      -2.60519398e-05 
       1.86149400e-07       1.48179157e-05      -2.60519425e-05 
       6.86920095e-07       1.48179166e-05      -2.60519445e-05 
      -1.88089243e-07       1.48179155e-05      -2.60519419e-05 
      -6.88859938e-07       1.48179147e-05      -2.60519398e-05 
       1.86149400e-07       1.48179157e-05      -2.60519425e-05 
       6.86920095e-07       1.48179166e-05      -2.60519445e-05 
      -1.90829752e-07       1.55207832e-05      -2.72798027e-05 
      -6.99432423e-07       1.55207823e-05      -2.72798007e-05 
       1.88861377e-07       1.55207833e-05      -2.72798034e-05 
       6.97464049e-07       1.55207842e-05      -2.72798055e-05 
      -1.90829752e-07       1.55207832e-05      -2.72798027e-05 
      -6.99432423e-07       1.55207823e-05      -2.72798007e-05 