# vtk DataFile Version 2.0
./output/onsasExample_BladeCantileverBeamNoPitch_windVel3DDynamic 3D/onsasExample_BladeCantileverBeamNoPitch_windVel3DDynamic 3D_0239.vtk
ASCII
DATASET UNSTRUCTURED_GRID

POINTS 800 float
      -1.033914e-23      -7.180703e-02      -7.180703e-02 
       3.619547e-24       7.180703e-02      -7.180703e-02 
       1.033914e-23       7.180703e-02       7.180703e-02 
      -3.619547e-24      -7.180703e-02       7.180703e-02 
       2.000000e-01      -7.180702e-02      -7.180706e-02 
       2.000000e-01       7.180705e-02      -7.180706e-02 
       2.000000e-01       7.180705e-02       7.180700e-02 
       2.000000e-01      -7.180702e-02       7.180700e-02 
       2.000000e-01      -7.180702e-02      -7.180706e-02 
       2.000000e-01       7.180705e-02      -7.180706e-02 
       2.000000e-01       7.180705e-02       7.180700e-02 
       2.000000e-01      -7.180702e-02       7.180700e-02 
       4.000000e-01      -7.180698e-02      -7.180715e-02 
       3.999999e-01       7.180709e-02      -7.180715e-02 
       4.000000e-01       7.180709e-02       7.180692e-02 
       4.000001e-01      -7.180698e-02       7.180692e-02 
       4.000000e-01      -7.180698e-02      -7.180715e-02 
       3.999999e-01       7.180709e-02      -7.180715e-02 
       4.000000e-01       7.180709e-02       7.180692e-02 
       4.000001e-01      -7.180698e-02       7.180692e-02 
       6.000000e-01      -7.180691e-02      -7.180729e-02 
       5.999999e-01       7.180716e-02      -7.180729e-02 
       6.000000e-01       7.180716e-02       7.180678e-02 
       6.000001e-01      -7.180691e-02       7.180678e-02 
       6.000000e-01      -7.180691e-02      -7.180729e-02 
       5.999999e-01       7.180716e-02      -7.180729e-02 
       6.000000e-01       7.180716e-02       7.180678e-02 
       6.000001e-01      -7.180691e-02       7.180678e-02 
       8.000000e-01      -7.180682e-02      -7.180749e-02 
       7.999999e-01       7.180725e-02      -7.180749e-02 
       8.000000e-01       7.180725e-02       7.180658e-02 
       8.000001e-01      -7.180682e-02       7.180658e-02 
       8.000000e-01      -7.180682e-02      -7.180749e-02 
       7.999999e-01       7.180725e-02      -7.180749e-02 
       8.000000e-01       7.180725e-02       7.180658e-02 
       8.000001e-01      -7.180682e-02       7.180658e-02 
       9.999999e-01      -7.180670e-02      -7.180774e-02 
       9.999999e-01       7.180737e-02      -7.180774e-02 
       1.000000e+00       7.180737e-02       7.180633e-02 
       1.000000e+00      -7.180670e-02       7.180633e-02 
       9.999999e-01      -7.180670e-02      -7.180774e-02 
       9.999999e-01       7.180737e-02      -7.180774e-02 
       1.000000e+00       7.180737e-02       7.180633e-02 
       1.000000e+00      -7.180670e-02       7.180633e-02 
       1.200000e+00      -7.180655e-02      -7.180805e-02 
       1.200000e+00       7.180751e-02      -7.180805e-02 
       1.200000e+00       7.180751e-02       7.180602e-02 
       1.200000e+00      -7.180655e-02       7.180602e-02 
       1.200000e+00      -7.180655e-02      -7.180805e-02 
       1.200000e+00       7.180751e-02      -7.180805e-02 
       1.200000e+00       7.180751e-02       7.180602e-02 
       1.200000e+00      -7.180655e-02       7.180602e-02 
       1.400000e+00      -7.180638e-02      -7.180840e-02 
       1.400000e+00       7.180768e-02      -7.180840e-02 
       1.400000e+00       7.180768e-02       7.180566e-02 
       1.400000e+00      -7.180638e-02       7.180566e-02 
       1.400000e+00      -7.180638e-02      -7.180840e-02 
       1.400000e+00       7.180768e-02      -7.180840e-02 
       1.400000e+00       7.180768e-02       7.180566e-02 
       1.400000e+00      -7.180638e-02       7.180566e-02 
       1.600000e+00      -7.180619e-02      -7.180881e-02 
       1.600000e+00       7.180788e-02      -7.180881e-02 
       1.600000e+00       7.180788e-02       7.180526e-02 
       1.600000e+00      -7.180619e-02       7.180526e-02 
       1.600000e+00      -7.180619e-02      -7.180881e-02 
       1.600000e+00       7.180788e-02      -7.180881e-02 
       1.600000e+00       7.180788e-02       7.180526e-02 
       1.600000e+00      -7.180619e-02       7.180526e-02 
       1.800000e+00      -7.180597e-02      -7.180927e-02 
       1.800000e+00       7.180809e-02      -7.180927e-02 
       1.800000e+00       7.180809e-02       7.180480e-02 
       1.800000e+00      -7.180597e-02       7.180480e-02 
       1.800000e+00      -7.180597e-02      -7.180927e-02 
       1.800000e+00       7.180809e-02      -7.180927e-02 
       1.800000e+00       7.180809e-02       7.180480e-02 
       1.800000e+00      -7.180597e-02       7.180480e-02 
       2.000000e+00      -7.180573e-02      -7.180977e-02 
       2.000000e+00       7.180833e-02      -7.180977e-02 
       2.000000e+00       7.180833e-02       7.180429e-02 
       2.000000e+00      -7.180573e-02       7.180429e-02 
       2.000000e+00      -7.180573e-02      -7.180977e-02 
       2.000000e+00       7.180833e-02      -7.180977e-02 
       2.000000e+00       7.180833e-02       7.180429e-02 
       2.000000e+00      -7.180573e-02       7.180429e-02 
       2.200000e+00      -7.180547e-02      -7.181033e-02 
       2.200000e+00       7.180860e-02      -7.181033e-02 
       2.200000e+00       7.180860e-02       7.180374e-02 
       2.200000e+00      -7.180547e-02       7.180374e-02 
       2.200000e+00      -7.180547e-02      -7.181033e-02 
       2.200000e+00       7.180860e-02      -7.181033e-02 
       2.200000e+00       7.180860e-02       7.180374e-02 
       2.200000e+00      -7.180547e-02       7.180374e-02 
       2.400000e+00      -7.180518e-02      -7.181093e-02 
       2.400000e+00       7.180888e-02      -7.181093e-02 
       2.400000e+00       7.180888e-02       7.180314e-02 
       2.400000e+00      -7.180518e-02       7.180314e-02 
       2.400000e+00      -7.180518e-02      -7.181093e-02 
       2.400000e+00       7.180888e-02      -7.181093e-02 
       2.400000e+00       7.180888e-02       7.180314e-02 
       2.400000e+00      -7.180518e-02       7.180314e-02 
       2.600000e+00      -7.180488e-02      -7.181158e-02 
       2.600000e+00       7.180919e-02      -7.181158e-02 
       2.600000e+00       7.180919e-02       7.180249e-02 
       2.600000e+00      -7.180488e-02       7.180249e-02 
       2.600000e+00      -7.180488e-02      -7.181158e-02 
       2.600000e+00       7.180919e-02      -7.181158e-02 
       2.600000e+00       7.180919e-02       7.180249e-02 
       2.600000e+00      -7.180488e-02       7.180249e-02 
       2.800000e+00      -7.180455e-02      -7.181227e-02 
       2.800000e+00       7.180952e-02      -7.181227e-02 
       2.800000e+00       7.180952e-02       7.180180e-02 
       2.800000e+00      -7.180455e-02       7.180180e-02 
       2.800000e+00      -7.180455e-02      -7.181227e-02 
       2.800000e+00       7.180952e-02      -7.181227e-02 
       2.800000e+00       7.180952e-02       7.180180e-02 
       2.800000e+00      -7.180455e-02       7.180180e-02 
       3.000000e+00      -7.180420e-02      -7.181300e-02 
       3.000000e+00       7.180986e-02      -7.181300e-02 
       3.000000e+00       7.180986e-02       7.180106e-02 
       3.000000e+00      -7.180420e-02       7.180106e-02 
       3.000000e+00      -7.180420e-02      -7.181300e-02 
       3.000000e+00       7.180986e-02      -7.181300e-02 
       3.000000e+00       7.180986e-02       7.180106e-02 
       3.000000e+00      -7.180420e-02       7.180106e-02 
       3.200000e+00      -7.180383e-02      -7.181378e-02 
       3.200000e+00       7.181023e-02      -7.181378e-02 
       3.200000e+00       7.181023e-02       7.180029e-02 
       3.200000e+00      -7.180383e-02       7.180029e-02 
       3.200000e+00      -7.180383e-02      -7.181378e-02 
       3.200000e+00       7.181023e-02      -7.181378e-02 
       3.200000e+00       7.181023e-02       7.180029e-02 
       3.200000e+00      -7.180383e-02       7.180029e-02 
       3.400000e+00      -7.180345e-02      -7.181460e-02 
       3.400000e+00       7.181062e-02      -7.181460e-02 
       3.400000e+00       7.181062e-02       7.179947e-02 
       3.400000e+00      -7.180345e-02       7.179947e-02 
       3.400000e+00      -7.180345e-02      -7.181460e-02 
       3.400000e+00       7.181062e-02      -7.181460e-02 
       3.400000e+00       7.181062e-02       7.179947e-02 
       3.400000e+00      -7.180345e-02       7.179947e-02 
       3.600000e+00      -7.180304e-02      -7.181546e-02 
       3.600000e+00       7.181103e-02      -7.181546e-02 
       3.600000e+00       7.181103e-02       7.179860e-02 
       3.600000e+00      -7.180304e-02       7.179860e-02 
       3.600000e+00      -7.180304e-02      -7.181546e-02 
       3.600000e+00       7.181103e-02      -7.181546e-02 
       3.600000e+00       7.181103e-02       7.179860e-02 
       3.600000e+00      -7.180304e-02       7.179860e-02 
       3.800000e+00      -7.180261e-02      -7.181636e-02 
       3.800000e+00       7.181145e-02      -7.181636e-02 
       3.800000e+00       7.181145e-02       7.179770e-02 
       3.800000e+00      -7.180261e-02       7.179770e-02 
       3.800000e+00      -7.180261e-02      -7.181636e-02 
       3.800000e+00       7.181145e-02      -7.181636e-02 
       3.800000e+00       7.181145e-02       7.179770e-02 
       3.800000e+00      -7.180261e-02       7.179770e-02 
       4.000000e+00      -7.180217e-02      -7.181730e-02 
       3.999999e+00       7.181190e-02      -7.181730e-02 
       4.000000e+00       7.181190e-02       7.179676e-02 
       4.000001e+00      -7.180217e-02       7.179676e-02 
       4.000000e+00      -7.180217e-02      -7.181730e-02 
       3.999999e+00       7.181190e-02      -7.181730e-02 
       4.000000e+00       7.181190e-02       7.179676e-02 
       4.000001e+00      -7.180217e-02       7.179676e-02 
       4.200000e+00      -7.180171e-02      -7.181828e-02 
[...]
POINT_DATA       800 
VECTORS Displacements float
      -1.03391407e-23      -1.38777878e-17      -1.38777878e-17 
       3.61954676e-24       1.38777878e-17       0.00000000e+00 
       1.03391407e-23       1.38777878e-17       1.38777878e-17 
      -3.61954676e-24      -1.38777878e-17       0.00000000e+00 
      -1.09144032e-08       1.38110159e-08      -2.89997081e-08 
      -3.06857366e-08       1.38110146e-08      -2.89996691e-08 
       1.08347439e-08       1.38109813e-08      -2.89996751e-08 
       3.06060773e-08       1.38109826e-08      -2.89997141e-08 
      -1.09144032e-08       1.38110159e-08      -2.89997081e-08 
      -3.06857366e-08       1.38110146e-08      -2.89996691e-08 
       1.08347439e-08       1.38109813e-08      -2.89996751e-08 
       3.06060773e-08       1.38109826e-08      -2.89997141e-08 
      -2.16370451e-08       5.48919542e-08      -1.15290477e-07 
      -6.08004915e-08       5.48919489e-08      -1.15290393e-07 
       2.14775340e-08       5.48918878e-08      -1.15290417e-07 
       6.06409805e-08       5.48918931e-08      -1.15290500e-07 
      -2.16370451e-08       5.48919542e-08      -1.15290477e-07 
      -6.08004915e-08       5.48919489e-08      -1.15290393e-07 
       2.14775340e-08       5.48918878e-08      -1.15290417e-07 
       6.06409805e-08       5.48918931e-08      -1.15290500e-07 
      -3.21679239e-08       1.22714705e-07      -2.57809826e-07 
      -9.03442632e-08       1.22714693e-07      -2.57809692e-07 
       3.19283723e-08       1.22714609e-07      -2.57809744e-07 
       9.01047116e-08       1.22714621e-07      -2.57809878e-07 
      -3.21679239e-08       1.22714705e-07      -2.57809826e-07 
      -9.03442632e-08       1.22714693e-07      -2.57809692e-07 
       3.19283723e-08       1.22714609e-07      -2.57809744e-07 
       9.01047116e-08       1.22714621e-07      -2.57809878e-07 
      -4.25070377e-08       2.16751158e-07      -4.55495275e-07 
      -1.19317050e-07       2.16751137e-07      -4.55495087e-07 
       4.21872599e-08       2.16751036e-07      -4.55495178e-07 
       1.18997272e-07       2.16751056e-07      -4.55495366e-07 
      -4.25070377e-08       2.16751158e-07      -4.55495275e-07 
      -1.19317050e-07       2.16751137e-07      -4.55495087e-07 
       4.21872599e-08       2.16751036e-07      -4.55495178e-07 
       1.18997272e-07       2.16751056e-07      -4.55495366e-07 
      -5.26543851e-08       3.36473203e-07      -7.07284345e-07 
      -1.47718849e-07       3.36473171e-07      -7.07284098e-07 
       5.22541994e-08       3.36473057e-07      -7.07284238e-07 
       1.47318664e-07       3.36473088e-07      -7.07284485e-07 
      -5.26543851e-08       3.36473203e-07      -7.07284345e-07 
      -1.47718849e-07       3.36473171e-07      -7.07284098e-07 
       5.22541994e-08       3.36473057e-07      -7.07284238e-07 
       1.47318664e-07       3.36473088e-07      -7.07284485e-07 
      -6.26099634e-08       4.81352730e-07      -1.01211456e-06 
      -1.75549660e-07       4.81352685e-07      -1.01211425e-06 
       6.21291922e-08       4.81352562e-07      -1.01211444e-06 
       1.75068889e-07       4.81352606e-07      -1.01211475e-06 
      -6.26099634e-08       4.81352730e-07      -1.01211456e-06 
      -1.75549660e-07       4.81352685e-07      -1.01211425e-06 
       6.21291922e-08       4.81352562e-07      -1.01211444e-06 
       1.75068889e-07       4.81352606e-07      -1.01211475e-06 
      -7.23737721e-08       6.50861629e-07      -1.36892343e-06 
      -2.02809481e-07       6.50861570e-07      -1.36892305e-06 
       7.18122404e-08       6.50861442e-07      -1.36892331e-06 
       2.02247949e-07       6.50861501e-07      -1.36892369e-06 
      -7.23737721e-08       6.50861629e-07      -1.36892343e-06 
      -2.02809481e-07       6.50861570e-07      -1.36892305e-06 
       7.18122404e-08       6.50861442e-07      -1.36892331e-06 
       2.02247949e-07       6.50861501e-07      -1.36892369e-06 
      -8.19458081e-08       8.44471790e-07      -1.77664848e-06 
      -2.29498308e-07       8.44471714e-07      -1.77664803e-06 
       8.13033452e-08       8.44471585e-07      -1.77664837e-06 
       2.28855845e-07       8.44471661e-07      -1.77664882e-06 
      -8.19458081e-08       8.44471790e-07      -1.77664848e-06 
      -2.29498308e-07       8.44471714e-07      -1.77664803e-06 
       8.13033452e-08       8.44471585e-07      -1.77664837e-06 
       2.28855845e-07       8.44471661e-07      -1.77664882e-06 
      -9.13260707e-08       1.06165510e-06      -2.23422724e-06 
      -2.55616142e-07       1.06165501e-06      -2.23422671e-06 
       9.06025086e-08       1.06165488e-06      -2.23422713e-06 
       2.54892580e-07       1.06165498e-06      -2.23422765e-06 
      -9.13260707e-08       1.06165510e-06      -2.23422724e-06 
      -2.55616142e-07       1.06165501e-06      -2.23422671e-06 
       9.06025086e-08       1.06165488e-06      -2.23422713e-06 
       2.54892580e-07       1.06165498e-06      -2.23422765e-06 
      -1.00514557e-07       1.30188346e-06      -2.74059721e-06 
      -2.81162980e-07       1.30188334e-06      -2.74059661e-06 
       9.97097329e-08       1.30188322e-06      -2.74059712e-06 
       2.80358156e-07       1.30188334e-06      -2.74059772e-06 
      -1.00514557e-07       1.30188346e-06      -2.74059721e-06 
      -2.81162980e-07       1.30188334e-06      -2.74059661e-06 
       9.97097329e-08       1.30188322e-06      -2.74059712e-06 
       2.80358156e-07       1.30188334e-06      -2.74059772e-06 
      -1.09504459e-07       1.56463767e-06      -3.29471202e-06 
      -3.06151450e-07       1.56463754e-06      -3.29471135e-06 
       1.08647883e-07       1.56463744e-06      -3.29471195e-06 
       3.05294874e-07       1.56463758e-06      -3.29471262e-06 
      -1.09504459e-07       1.56463767e-06      -3.29471202e-06 
      -3.06151450e-07       1.56463754e-06      -3.29471135e-06 
       1.08647883e-07       1.56463744e-06      -3.29471195e-06 
       3.05294874e-07       1.56463758e-06      -3.29471262e-06 
      -1.18320051e-07       1.84943536e-06      -3.89559423e-06 
      -3.30626003e-07       1.84943521e-06      -3.89559350e-06 
       1.17411293e-07       1.84943513e-06      -3.89559420e-06 
       3.29717246e-07       1.84943529e-06      -3.89559493e-06 
      -1.18320051e-07       1.84943536e-06      -3.89559423e-06 
      -3.30626003e-07       1.84943521e-06      -3.89559350e-06 
       1.17411293e-07       1.84943513e-06      -3.89559420e-06 
       3.29717246e-07       1.84943529e-06      -3.89559493e-06 
      -1.26961329e-07       2.15580358e-06      -4.54228482e-06 
      -3.54586636e-07       2.15580340e-06      -4.54228402e-06 
       1.25999966e-07       2.15580336e-06      -4.54228482e-06 
       3.53625274e-07       2.15580354e-06      -4.54228563e-06 
      -1.26961329e-07       2.15580358e-06      -4.54228482e-06 
      -3.54586636e-07       2.15580340e-06      -4.54228402e-06 
       1.25999966e-07       2.15580336e-06      -4.54228482e-06 
       3.53625274e-07       2.15580354e-06      -4.54228563e-06 
      -1.35428289e-07       2.48326939e-06      -5.23382475e-06 
      -3.78033343e-07       2.48326919e-06      -5.23382387e-06 
       1.34413909e-07       2.48326917e-06      -5.23382478e-06 
       3.77018964e-07       2.48326937e-06      -5.23382566e-06 
      -1.35428289e-07       2.48326939e-06      -5.23382475e-06 
      -3.78033343e-07       2.48326919e-06      -5.23382387e-06 
       1.34413909e-07       2.48326917e-06      -5.23382478e-06 
       3.77018964e-07       2.48326937e-06      -5.23382566e-06 
      -1.43720926e-07       2.83135984e-06      -5.96925497e-06 
      -4.00966122e-07       2.83135961e-06      -5.96925401e-06 
       1.42653125e-07       2.83135962e-06      -5.96925504e-06 
       3.99898321e-07       2.83135985e-06      -5.96925600e-06 
      -1.43720926e-07       2.83135984e-06      -5.96925497e-06 
      -4.00966122e-07       2.83135961e-06      -5.96925401e-06 
       1.42653125e-07       2.83135962e-06      -5.96925504e-06 
       3.99898321e-07       2.83135985e-06      -5.96925600e-06 
      -1.51839235e-07       3.19960199e-06      -6.74761646e-06 
      -4.23384966e-07       3.19960173e-06      -6.74761542e-06 
       1.50717618e-07       3.19960178e-06      -6.74761657e-06 
       4.22263349e-07       3.19960204e-06      -6.74761760e-06 
      -1.51839235e-07       3.19960199e-06      -6.74761646e-06 
      -4.23384966e-07       3.19960173e-06      -6.74761542e-06 
       1.50717618e-07       3.19960178e-06      -6.74761657e-06 
       4.22263349e-07       3.19960204e-06      -6.74761760e-06 
      -1.59783214e-07       3.58752289e-06      -7.56795017e-06 
      -4.45289870e-07       3.58752261e-06      -7.56794905e-06 
       1.58607394e-07       3.58752269e-06      -7.56795032e-06 
       4.44114052e-07       3.58752298e-06      -7.56795143e-06 
      -1.59783214e-07       3.58752289e-06      -7.56795017e-06 
      -4.45289870e-07       3.58752261e-06      -7.56794905e-06 
       1.58607394e-07       3.58752269e-06      -7.56795032e-06 
       4.44114052e-07       3.58752298e-06      -7.56795143e-06 
      -1.67552855e-07       3.99464960e-06      -8.42929706e-06 
      -4.66680833e-07       3.99464929e-06      -8.42929586e-06 
       1.66322457e-07       3.99464942e-06      -8.42929726e-06 
       4.65450434e-07       3.99464973e-06      -8.42929845e-06 
      -1.67552855e-07       3.99464960e-06      -8.42929706e-06 
      -4.66680833e-07       3.99464929e-06      -8.42929586e-06 
       1.66322457e-07       3.99464942e-06      -8.42929726e-06 
       4.65450434e-07       3.99464973e-06      -8.42929845e-06 
      -1.75148156e-07       4.42050919e-06      -9.33069810e-06 
      -4.87557847e-07       4.42050885e-06      -9.33069682e-06 
       1.73862810e-07       4.42050901e-06      -9.33069835e-06 
       4.86272501e-07       4.42050935e-06      -9.33069963e-06 
      -1.75148156e-07       4.42050919e-06      -9.33069810e-06 
      -4.87557847e-07       4.42050885e-06      -9.33069682e-06 
       1.73862810e-07       4.42050901e-06      -9.33069835e-06 
       4.86272501e-07       4.42050935e-06      -9.33069963e-06 
      -1.82569113e-07       4.86462869e-06      -1.02711943e-05 
      -5.07920910e-07       4.86462833e-06      -1.02711929e-05 
       1.81228459e-07       4.86462853e-06      -1.02711945e-05 
       5.06580257e-07       4.86462889e-06      -1.02711959e-05 
      -1.82569112e-07       4.86462869e-06      -1.02711943e-05 
      -5.07920910e-07       4.86462833e-06      -1.02711929e-05 
       1.81228459e-07       4.86462853e-06      -1.02711945e-05 
       5.06580257e-07       4.86462889e-06      -1.02711959e-05 
      -1.89814109e-07       5.32654437e-06      -1.12498438e-05 
      -5.27788274e-07       5.32654398e-06      -1.12498423e-05 
       1.88438580e-07       5.32654423e-06      -1.12498441e-05 
       5.26412745e-07       5.32654462e-06      -1.12498455e-05 
      -1.89814109e-07       5.32654437e-06      -1.12498438e-05 
      -5.27788274e-07       5.32654398e-06      -1.12498423e-05 
       1.88438580e-07       5.32654423e-06      -1.12498441e-05 
       5.26412745e-07       5.32654462e-06      -1.12498455e-05 
      -1.96902727e-07       5.80582958e-06      -1.22657751e-05 
      -5.47199605e-07       5.80582915e-06      -1.22657736e-05 
       1.95491807e-07       5.80582945e-06      -1.22657755e-05 
       5.45788684e-07       5.80582988e-06      -1.22657771e-05 
      -1.96902727e-07       5.80582958e-06      -1.22657751e-05 
      -5.47199605e-07       5.80582915e-06      -1.22657736e-05 
       1.95491807e-07       5.80582945e-06      -1.22657755e-05 
       5.45788684e-07       5.80582988e-06      -1.22657771e-05 
      -2.03834958e-07       6.30206700e-06      -1.33181348e-05 
      -5.66154897e-07       6.30206655e-06      -1.33181333e-05 
       2.02388144e-07       6.30206690e-06      -1.33181353e-05 
       5.64708083e-07       6.30206735e-06      -1.33181369e-05 
      -2.03834958e-07       6.30206700e-06      -1.33181348e-05 
      -5.66154897e-07       6.30206655e-06      -1.33181333e-05 
       2.02388144e-07       6.30206690e-06      -1.33181353e-05 
       5.64708083e-07       6.30206735e-06      -1.33181369e-05 
      -2.10610800e-07       6.81483935e-06      -1.44060693e-05 
      -5.84654147e-07       6.81483886e-06      -1.44060676e-05 
       2.09127597e-07       6.81483926e-06      -1.44060698e-05 
       5.83170944e-07       6.81483975e-06      -1.44060715e-05 
      -2.10610800e-07       6.81483935e-06      -1.44060693e-05 
      -5.84654147e-07       6.81483886e-06      -1.44060676e-05 
       2.09127597e-07       6.81483926e-06      -1.44060698e-05 
       5.83170944e-07       6.81483975e-06      -1.44060715e-05 
      -2.17230244e-07       7.34372931e-06      -1.55287249e-05 
      -6.02697348e-07       7.34372879e-06      -1.55287232e-05 
       2.15710172e-07       7.34372924e-06      -1.55287255e-05 
       6.01177275e-07       7.34372976e-06      -1.55287272e-05 
      -2.17230244e-07       7.34372931e-06      -1.55287249e-05 
      -6.02697348e-07       7.34372879e-06      -1.55287232e-05 
       2.15710172e-07       7.34372924e-06      -1.55287255e-05 
       6.01177275e-07       7.34372976e-06      -1.55287272e-05 
      -2.23693287e-07       7.88831958e-06      -1.66852481e-05 
      -6.20284493e-07       7.88831903e-06      -1.66852463e-05 
       2.22135876e-07       7.88831954e-06      -1.66852488e-05 
       6.18727082e-07       7.88832008e-06      -1.66852506e-05 
      -2.23693287e-07       7.88831958e-06      -1.66852481e-05 
      -6.20284493e-07       7.88831903e-06      -1.66852463e-05 
       2.22135876e-07       7.88831954e-06      -1.66852488e-05 
       6.18727082e-07       7.88832008e-06      -1.66852506e-05 
      -2.29999920e-07       8.44819286e-06      -1.78747853e-05 
      -6.37415576e-07       8.44819228e-06      -1.78747834e-05 
       2.28404715e-07       8.44819284e-06      -1.78747860e-05 
       6.35820371e-07       8.44819342e-06      -1.78747879e-05 
      -2.29999920e-07       8.44819286e-06      -1.78747853e-05 
      -6.37415576e-07       8.44819228e-06      -1.78747834e-05 
       2.28404715e-07       8.44819284e-06      -1.78747860e-05 
       6.35820371e-07       8.44819342e-06      -1.78747879e-05 
      -2.36150138e-07       9.02293185e-06      -1.90964830e-05 
      -6.54090591e-07       9.02293125e-06      -1.90964810e-05 
       2.34516694e-07       9.02293186e-06      -1.90964838e-05 
       6.52457148e-07       9.02293246e-06      -1.90964857e-05 
      -2.36150138e-07       9.02293185e-06      -1.90964830e-05 
      -6.54090591e-07       9.02293125e-06      -1.90964810e-05 
       2.34516694e-07       9.02293186e-06      -1.90964838e-05 
       6.52457148e-07       9.02293246e-06      -1.90964857e-05 
      -2.42143935e-07       9.61211925e-06      -2.03494875e-05 
      -6.70309533e-07       9.61211861e-06      -2.03494855e-05 
       2.40471818e-07       9.61211928e-06      -2.03494883e-05 
       6.68637417e-07       9.61211991e-06      -2.03494904e-05 
      -2.42143935e-07       9.61211925e-06      -2.03494875e-05 
      -6.70309533e-07       9.61211861e-06      -2.03494855e-05 
       2.40471818e-07       9.61211928e-06      -2.03494883e-05 
       6.68637417e-07       9.61211991e-06      -2.03494904e-05 
      -2.47981306e-07       1.02153378e-05      -2.16329453e-05 
      -6.86072397e-07       1.02153371e-05      -2.16329432e-05 
       2.46270095e-07       1.02153378e-05      -2.16329462e-05 
       6.84361186e-07       1.02153385e-05      -2.16329484e-05 
      -2.47981306e-07       1.02153378e-05      -2.16329453e-05 
      -6.86072397e-07       1.02153371e-05      -2.16329432e-05 
       2.46270095e-07       1.02153378e-05      -2.16329462e-05 
       6.84361186e-07       1.02153385e-05      -2.16329484e-05 
      -2.53664299e-07       1.08321794e-05      -2.29460205e-05 
      -7.01401255e-07       1.08321787e-05      -2.29460183e-05 
       2.51927455e-07       1.08321794e-05      -2.29460215e-05 
       6.99664410e-07       1.08321801e-05      -2.29460237e-05 
      -2.53664299e-07       1.08321794e-05      -2.29460205e-05 
      -7.01401255e-07       1.08321787e-05      -2.29460183e-05 
       2.51927455e-07       1.08321794e-05      -2.29460215e-05 
       6.99664410e-07       1.08321801e-05      -2.29460237e-05 
      -2.59208882e-07       1.14622732e-05      -2.42879476e-05 
      -7.16332059e-07       1.14622725e-05      -2.42879454e-05 
       2.57445900e-07       1.14622733e-05      -2.42879487e-05 
       7.14569076e-07       1.14622740e-05      -2.42879509e-05 
      -2.59208882e-07       1.14622732e-05      -2.42879476e-05 
      -7.16332059e-07       1.14622725e-05      -2.42879454e-05 
       2.57445900e-07       1.14622733e-05      -2.42879487e-05 
       7.14569076e-07       1.14622740e-05      -2.42879509e-05 
      -2.64615046e-07       1.21052577e-05      -2.56579789e-05 
      -7.30864800e-07       1.21052569e-05      -2.56579766e-05 
       2.62825439e-07       1.21052578e-05      -2.56579800e-05 
       7.29075192e-07       1.21052586e-05      -2.56579824e-05 
      -2.64615046e-07       1.21052577e-05      -2.56579789e-05 
      -7.30864800e-07       1.21052569e-05      -2.56579766e-05 
       2.62825439e-07       1.21052578e-05      -2.56579800e-05 
       7.29075192e-07       1.21052586e-05      -2.56579824e-05 
      -2.69882787e-07       1.27607713e-05      -2.70553666e-05 
      -7.44999475e-07       1.27607705e-05      -2.70553642e-05 
       2.68066076e-07       1.27607714e-05      -2.70553677e-05 
       7.43182763e-07       1.27607722e-05      -2.70553702e-05 
      -2.69882787e-07       1.27607713e-05      -2.70553666e-05 
      -7.44999475e-07       1.27607705e-05      -2.70553642e-05 
       2.68066076e-07       1.27607714e-05      -2.70553677e-05 
       7.43182763e-07       1.27607722e-05      -2.70553702e-05 
      -2.75012097e-07       1.34284523e-05      -2.84793628e-05 
      -7.58736075e-07       1.34284515e-05      -2.84793603e-05 
       2.73167819e-07       1.34284525e-05      -2.84793640e-05 
       7.56891797e-07       1.34284533e-05      -2.84793665e-05 
      -2.75012097e-07       1.34284523e-05      -2.84793628e-05 
      -7.58736075e-07       1.34284515e-05      -2.84793603e-05 
       2.73167819e-07       1.34284525e-05      -2.84793640e-05 
       7.56891797e-07       1.34284533e-05      -2.84793665e-05 
      -2.80002968e-07       1.41079393e-05      -2.99292198e-05 
      -7.72074594e-07       1.41079384e-05      -2.99292173e-05 
       2.78130674e-07       1.41079395e-05      -2.99292211e-05 
       7.70202299e-07       1.41079403e-05      -2.99292237e-05 
      -2.80002968e-07       1.41079393e-05      -2.99292198e-05 
      -7.72074594e-07       1.41079384e-05      -2.99292173e-05 
       2.78130674e-07       1.41079395e-05      -2.99292211e-05 
       7.70202299e-07       1.41079403e-05      -2.99292237e-05 
      -2.84855396e-07       1.47988706e-05      -3.14041898e-05 
      -7.85015026e-07       1.47988697e-05      -3.14041872e-05 
       2.82954648e-07       1.47988708e-05      -3.14041912e-05 
       7.83114277e-07       1.47988717e-05      -3.14041938e-05 
      -2.84855396e-07       1.47988706e-05      -3.14041898e-05 
      -7.85015026e-07       1.47988697e-05      -3.14041872e-05 
       2.82954648e-07       1.47988708e-05      -3.14041912e-05 
       7.83114277e-07       1.47988717e-05      -3.14041938e-05 
      -2.89569373e-07       1.55008846e-05      -3.29035250e-05 
      -7.97557363e-07       1.55008837e-05      -3.29035223e-05 
       2.87639748e-07       1.55008848e-05      -3.29035264e-05 
       7.95627740e-07       1.55008857e-05      -3.29035291e-05 
      -2.89569373e-07       1.55008846e-05      -3.29035250e-05 
      -7.97557363e-07       1.55008837e-05      -3.29035223e-05 