# vtk DataFile Version 2.0
./output/onsasExample_BladeCantileverBeamNoPitch_windVel3DDynamic 3D/onsasExample_BladeCantileverBeamNoPitch_windVel3DDynamic 3D_0093.vtk
ASCII
DATASET UNSTRUCTURED_GRID

POINTS 800 float
      -7.999026e-24      -7.180703e-02      -7.180703e-02 
      -2.041465e-24       7.180703e-02      -7.180703e-02 
       7.999026e-24       7.180703e-02       7.180703e-02 
       2.041465e-24      -7.180703e-02       7.180703e-02 
       2.000000e-01      -7.180702e-02      -7.180706e-02 
       2.000000e-01       7.180705e-02      -7.180706e-02 
       2.000000e-01       7.180705e-02       7.180701e-02 
       2.000000e-01      -7.180702e-02       7.180701e-02 
       2.000000e-01      -7.180702e-02      -7.180706e-02 
       2.000000e-01       7.180705e-02      -7.180706e-02 
       2.000000e-01       7.180705e-02       7.180701e-02 
       2.000000e-01      -7.180702e-02       7.180701e-02 
       4.000000e-01      -7.180698e-02      -7.180713e-02 
       3.999999e-01       7.180709e-02      -7.180713e-02 
       4.000000e-01       7.180709e-02       7.180694e-02 
       4.000001e-01      -7.180698e-02       7.180694e-02 
       4.000000e-01      -7.180698e-02      -7.180713e-02 
       3.999999e-01       7.180709e-02      -7.180713e-02 
       4.000000e-01       7.180709e-02       7.180694e-02 
       4.000001e-01      -7.180698e-02       7.180694e-02 
       6.000000e-01      -7.180691e-02      -7.180725e-02 
       5.999999e-01       7.180716e-02      -7.180725e-02 
       6.000000e-01       7.180716e-02       7.180681e-02 
       6.000001e-01      -7.180691e-02       7.180681e-02 
       6.000000e-01      -7.180691e-02      -7.180725e-02 
       5.999999e-01       7.180716e-02      -7.180725e-02 
       6.000000e-01       7.180716e-02       7.180681e-02 
       6.000001e-01      -7.180691e-02       7.180681e-02 
       8.000000e-01      -7.180682e-02      -7.180742e-02 
       7.999999e-01       7.180725e-02      -7.180742e-02 
       8.000000e-01       7.180725e-02       7.180665e-02 
       8.000001e-01      -7.180682e-02       7.180665e-02 
       8.000000e-01      -7.180682e-02      -7.180742e-02 
       7.999999e-01       7.180725e-02      -7.180742e-02 
       8.000000e-01       7.180725e-02       7.180665e-02 
       8.000001e-01      -7.180682e-02       7.180665e-02 
       1.000000e+00      -7.180670e-02      -7.180763e-02 
       9.999999e-01       7.180737e-02      -7.180763e-02 
       1.000000e+00       7.180737e-02       7.180643e-02 
       1.000000e+00      -7.180670e-02       7.180643e-02 
       1.000000e+00      -7.180670e-02      -7.180763e-02 
       9.999999e-01       7.180737e-02      -7.180763e-02 
       1.000000e+00       7.180737e-02       7.180643e-02 
       1.000000e+00      -7.180670e-02       7.180643e-02 
       1.200000e+00      -7.180655e-02      -7.180789e-02 
       1.200000e+00       7.180751e-02      -7.180789e-02 
       1.200000e+00       7.180751e-02       7.180618e-02 
       1.200000e+00      -7.180655e-02       7.180618e-02 
       1.200000e+00      -7.180655e-02      -7.180789e-02 
       1.200000e+00       7.180751e-02      -7.180789e-02 
       1.200000e+00       7.180751e-02       7.180618e-02 
       1.200000e+00      -7.180655e-02       7.180618e-02 
       1.400000e+00      -7.180639e-02      -7.180819e-02 
       1.400000e+00       7.180768e-02      -7.180819e-02 
       1.400000e+00       7.180768e-02       7.180587e-02 
       1.400000e+00      -7.180639e-02       7.180587e-02 
       1.400000e+00      -7.180639e-02      -7.180819e-02 
       1.400000e+00       7.180768e-02      -7.180819e-02 
       1.400000e+00       7.180768e-02       7.180587e-02 
       1.400000e+00      -7.180639e-02       7.180587e-02 
       1.600000e+00      -7.180619e-02      -7.180854e-02 
       1.600000e+00       7.180787e-02      -7.180854e-02 
       1.600000e+00       7.180787e-02       7.180553e-02 
       1.600000e+00      -7.180619e-02       7.180553e-02 
       1.600000e+00      -7.180619e-02      -7.180854e-02 
       1.600000e+00       7.180787e-02      -7.180854e-02 
       1.600000e+00       7.180787e-02       7.180553e-02 
       1.600000e+00      -7.180619e-02       7.180553e-02 
       1.800000e+00      -7.180598e-02      -7.180892e-02 
       1.800000e+00       7.180809e-02      -7.180892e-02 
       1.800000e+00       7.180809e-02       7.180515e-02 
       1.800000e+00      -7.180598e-02       7.180515e-02 
       1.800000e+00      -7.180598e-02      -7.180892e-02 
       1.800000e+00       7.180809e-02      -7.180892e-02 
       1.800000e+00       7.180809e-02       7.180515e-02 
       1.800000e+00      -7.180598e-02       7.180515e-02 
       2.000000e+00      -7.180574e-02      -7.180935e-02 
       2.000000e+00       7.180833e-02      -7.180935e-02 
       2.000000e+00       7.180833e-02       7.180472e-02 
       2.000000e+00      -7.180574e-02       7.180472e-02 
       2.000000e+00      -7.180574e-02      -7.180935e-02 
       2.000000e+00       7.180833e-02      -7.180935e-02 
       2.000000e+00       7.180833e-02       7.180472e-02 
       2.000000e+00      -7.180574e-02       7.180472e-02 
       2.200000e+00      -7.180548e-02      -7.180981e-02 
       2.200000e+00       7.180859e-02      -7.180981e-02 
       2.200000e+00       7.180859e-02       7.180425e-02 
       2.200000e+00      -7.180548e-02       7.180425e-02 
       2.200000e+00      -7.180548e-02      -7.180981e-02 
       2.200000e+00       7.180859e-02      -7.180981e-02 
       2.200000e+00       7.180859e-02       7.180425e-02 
       2.200000e+00      -7.180548e-02       7.180425e-02 
       2.400000e+00      -7.180519e-02      -7.181032e-02 
       2.400000e+00       7.180887e-02      -7.181032e-02 
       2.400000e+00       7.180887e-02       7.180375e-02 
       2.400000e+00      -7.180519e-02       7.180375e-02 
       2.400000e+00      -7.180519e-02      -7.181032e-02 
       2.400000e+00       7.180887e-02      -7.181032e-02 
       2.400000e+00       7.180887e-02       7.180375e-02 
       2.400000e+00      -7.180519e-02       7.180375e-02 
       2.600000e+00      -7.180489e-02      -7.181086e-02 
       2.600000e+00       7.180918e-02      -7.181086e-02 
       2.600000e+00       7.180918e-02       7.180320e-02 
       2.600000e+00      -7.180489e-02       7.180320e-02 
       2.600000e+00      -7.180489e-02      -7.181086e-02 
       2.600000e+00       7.180918e-02      -7.181086e-02 
       2.600000e+00       7.180918e-02       7.180320e-02 
       2.600000e+00      -7.180489e-02       7.180320e-02 
       2.800000e+00      -7.180456e-02      -7.181144e-02 
       2.800000e+00       7.180950e-02      -7.181144e-02 
       2.800000e+00       7.180950e-02       7.180262e-02 
       2.800000e+00      -7.180456e-02       7.180262e-02 
       2.800000e+00      -7.180456e-02      -7.181144e-02 
       2.800000e+00       7.180950e-02      -7.181144e-02 
       2.800000e+00       7.180950e-02       7.180262e-02 
       2.800000e+00      -7.180456e-02       7.180262e-02 
       3.000000e+00      -7.180422e-02      -7.181206e-02 
       3.000000e+00       7.180985e-02      -7.181206e-02 
       3.000000e+00       7.180985e-02       7.180201e-02 
       3.000000e+00      -7.180422e-02       7.180201e-02 
       3.000000e+00      -7.180422e-02      -7.181206e-02 
       3.000000e+00       7.180985e-02      -7.181206e-02 
       3.000000e+00       7.180985e-02       7.180201e-02 
       3.000000e+00      -7.180422e-02       7.180201e-02 
       3.200000e+00      -7.180385e-02      -7.181271e-02 
       3.200000e+00       7.181021e-02      -7.181271e-02 
       3.200000e+00       7.181021e-02       7.180136e-02 
       3.200000e+00      -7.180385e-02       7.180136e-02 
       3.200000e+00      -7.180385e-02      -7.181271e-02 
       3.200000e+00       7.181021e-02      -7.181271e-02 
       3.200000e+00       7.181021e-02       7.180136e-02 
       3.200000e+00      -7.180385e-02       7.180136e-02 
       3.400000e+00      -7.180347e-02      -7.181340e-02 
       3.400000e+00       7.181060e-02      -7.181340e-02 
       3.400000e+00       7.181060e-02       7.180067e-02 
       3.400000e+00      -7.180347e-02       7.180067e-02 
       3.400000e+00      -7.180347e-02      -7.181340e-02 
       3.400000e+00       7.181060e-02      -7.181340e-02 
       3.400000e+00       7.181060e-02       7.180067e-02 
       3.400000e+00      -7.180347e-02       7.180067e-02 
       3.600000e+00      -7.180306e-02      -7.181412e-02 
       3.600000e+00       7.181100e-02      -7.181412e-02 
       3.600000e+00       7.181100e-02       7.179995e-02 
       3.600000e+00      -7.180306e-02       7.179995e-02 
       3.600000e+00      -7.180306e-02      -7.181412e-02 
       3.600000e+00       7.181100e-02      -7.181412e-02 
       3.600000e+00       7.181100e-02       7.179995e-02 
       3.600000e+00      -7.180306e-02       7.179995e-02 
       3.800000e+00      -7.180264e-02      -7.181487e-02 
       3.800000e+00       7.181143e-02      -7.181487e-02 
       3.800000e+00       7.181143e-02       7.179920e-02 
       3.800000e+00      -7.180264e-02       7.179920e-02 
       3.800000e+00      -7.180264e-02      -7.181487e-02 
       3.800000e+00       7.181143e-02      -7.181487e-02 
       3.800000e+00       7.181143e-02       7.179920e-02 
       3.800000e+00      -7.180264e-02       7.179920e-02 
       4.000000e+00      -7.180220e-02      -7.181565e-02 
       4.000000e+00       7.181187e-02      -7.181565e-02 
       4.000000e+00       7.181187e-02       7.179841e-02 
       4.000000e+00      -7.180220e-02       7.179841e-02 
       4.000000e+00      -7.180220e-02      -7.181565e-02 
       4.000000e+00       7.181187e-02      -7.181565e-02 
       4.000000e+00       7.181187e-02       7.179841e-02 
       4.000000e+00      -7.180220e-02       7.179841e-02 
       4.200000e+00      -7.180174e-02      -7.181647e-02 
[...]
POINT_DATA       800 
VECTORS Displacements float
      -7.99902632e-24      -1.38777878e-17      -1.38777878e-17 
      -2.04146476e-24       0.00000000e+00      -1.38777878e-17 
       7.99902632e-24       1.38777878e-17       1.38777878e-17 
       2.04146476e-24       0.00000000e+00       1.38777878e-17 
      -7.82711096e-09       1.37361670e-08      -2.46194412e-08 
      -2.74909906e-08       1.37361656e-08      -2.46194147e-08 
       7.74832939e-09       1.37361440e-08      -2.46194190e-08 
       2.74122091e-08       1.37361453e-08      -2.46194455e-08 
      -7.82711096e-09       1.37361670e-08      -2.46194412e-08 
      -2.74909906e-08       1.37361656e-08      -2.46194147e-08 
       7.74832939e-09       1.37361440e-08      -2.46194190e-08 
       2.74122091e-08       1.37361453e-08      -2.46194455e-08 
      -1.54908771e-08       5.45927465e-08      -9.78224030e-08 
      -5.44396057e-08       5.45927412e-08      -9.78223454e-08 
       1.53331664e-08       5.45927025e-08      -9.78223623e-08 
       5.42818950e-08       5.45927078e-08      -9.78224199e-08 
      -1.54908771e-08       5.45927465e-08      -9.78224030e-08 
      -5.44396057e-08       5.45927412e-08      -9.78223454e-08 
       1.53331664e-08       5.45927025e-08      -9.78223623e-08 
       5.42818950e-08       5.45927078e-08      -9.78224199e-08 
      -2.29912968e-08       1.22041892e-07      -2.18625879e-07 
      -8.08458437e-08       1.22041881e-07      -2.18625786e-07 
       2.27545124e-08       1.22041829e-07      -2.18625823e-07 
       8.06090593e-08       1.22041841e-07      -2.18625916e-07 
      -2.29912968e-08       1.22041892e-07      -2.18625879e-07 
      -8.08458437e-08       1.22041881e-07      -2.18625786e-07 
       2.27545124e-08       1.22041829e-07      -2.18625823e-07 
       8.06090593e-08       1.22041841e-07      -2.18625916e-07 
      -3.03283687e-08       2.15555758e-07      -3.86046862e-07 
      -1.06709703e-07       2.15555738e-07      -3.86046729e-07 
       3.00123689e-08       2.15555678e-07      -3.86046794e-07 
       1.06393703e-07       2.15555698e-07      -3.86046927e-07 
      -3.03283687e-08       2.15555758e-07      -3.86046862e-07 
      -1.06709703e-07       2.15555738e-07      -3.86046729e-07 
       3.00123689e-08       2.15555678e-07      -3.86046794e-07 
       1.06393703e-07       2.15555698e-07      -3.86046927e-07 
      -3.75020912e-08       3.34606499e-07      -5.99102345e-07 
      -1.32031183e-07       3.34606467e-07      -5.99102169e-07 
       3.71067375e-08       3.34606403e-07      -5.99102269e-07 
       1.31635829e-07       3.34606434e-07      -5.99102445e-07 
      -3.75020912e-08       3.34606499e-07      -5.99102345e-07 
      -1.32031183e-07       3.34606467e-07      -5.99102169e-07 
       3.71067375e-08       3.34606403e-07      -5.99102269e-07 
       1.31635829e-07       3.34606434e-07      -5.99102445e-07 
      -4.45124633e-08       4.78666267e-07      -8.56809323e-07 
      -1.56810281e-07       4.78666223e-07      -8.56809100e-07 
       4.40376198e-08       4.78666157e-07      -8.56809240e-07 
       1.56335437e-07       4.78666201e-07      -8.56809463e-07 
      -4.45124633e-08       4.78666267e-07      -8.56809323e-07 
      -1.56810281e-07       4.78666223e-07      -8.56809100e-07 
       4.40376198e-08       4.78666157e-07      -8.56809240e-07 
       1.56335437e-07       4.78666201e-07      -8.56809463e-07 
      -5.13594827e-08       6.47207216e-07      -1.15818479e-06 
      -1.81046995e-07       6.47207158e-07      -1.15818451e-06 
       5.08050164e-08       6.47207094e-07      -1.15818470e-06 
       1.80492529e-07       6.47207152e-07      -1.15818497e-06 
      -5.13594827e-08       6.47207216e-07      -1.15818479e-06 
      -1.81046995e-07       6.47207158e-07      -1.15818451e-06 
       5.08050164e-08       6.47207094e-07      -1.15818470e-06 
       1.80492529e-07       6.47207152e-07      -1.15818497e-06 
      -5.80431483e-08       8.39701502e-07      -1.50224573e-06 
      -2.04741326e-07       8.39701427e-07      -1.50224541e-06 
       5.74089303e-08       8.39701368e-07      -1.50224565e-06 
       2.04107108e-07       8.39701443e-07      -1.50224597e-06 
      -5.80431483e-08       8.39701502e-07      -1.50224573e-06 
      -2.04741326e-07       8.39701427e-07      -1.50224541e-06 
       5.74089303e-08       8.39701368e-07      -1.50224565e-06 
       2.04107108e-07       8.39701443e-07      -1.50224597e-06 
      -6.45634586e-08       1.05562128e-06      -1.88800915e-06 
      -2.27893270e-07       1.05562118e-06      -1.88800877e-06 
       6.38493616e-08       1.05562113e-06      -1.88800907e-06 
       2.27179173e-07       1.05562123e-06      -1.88800945e-06 
      -6.45634586e-08       1.05562128e-06      -1.88800915e-06 
      -2.27893270e-07       1.05562118e-06      -1.88800877e-06 
       6.38493616e-08       1.05562113e-06      -1.88800907e-06 
       2.27179173e-07       1.05562123e-06      -1.88800945e-06 
      -7.09204129e-08       1.29443869e-06      -2.31449204e-06 
      -2.50502828e-07       1.29443858e-06      -2.31449160e-06 
       7.01263123e-08       1.29443854e-06      -2.31449195e-06 
       2.49708727e-07       1.29443865e-06      -2.31449240e-06 
      -7.09204127e-08       1.29443869e-06      -2.31449204e-06 
      -2.50502827e-07       1.29443858e-06      -2.31449160e-06 
       7.01263123e-08       1.29443854e-06      -2.31449195e-06 
       2.49708727e-07       1.29443865e-06      -2.31449240e-06 
      -7.71087239e-08       1.55563493e-06      -2.78072847e-06 
      -2.72584268e-07       1.55563479e-06      -2.78072798e-06 
       7.62629293e-08       1.55563478e-06      -2.78072840e-06 
       2.71738474e-07       1.55563491e-06      -2.78072890e-06 
      -7.71087239e-08       1.55563493e-06      -2.78072847e-06 
      -2.72584268e-07       1.55563479e-06      -2.78072798e-06 
       7.62629293e-08       1.55563478e-06      -2.78072840e-06 
       2.71738474e-07       1.55563491e-06      -2.78072890e-06 
      -8.31525888e-08       1.83872791e-06      -3.28582424e-06 
      -2.94181826e-07       1.83872776e-06      -3.28582369e-06 
       8.22547781e-08       1.83872777e-06      -3.28582419e-06 
       2.93284015e-07       1.83872792e-06      -3.28582473e-06 
      -8.31525888e-08       1.83872791e-06      -3.28582424e-06 
      -2.94181826e-07       1.83872776e-06      -3.28582369e-06 
       8.22547781e-08       1.83872777e-06      -3.28582419e-06 
       2.93284015e-07       1.83872792e-06      -3.28582473e-06 
      -8.90520044e-08       2.14324495e-06      -3.82890386e-06 
      -3.15295497e-07       2.14324477e-06      -3.82890326e-06 
       8.81018614e-08       2.14324481e-06      -3.82890382e-06 
       3.14345354e-07       2.14324499e-06      -3.82890442e-06 
      -8.90520044e-08       2.14324495e-06      -3.82890386e-06 
      -3.15295497e-07       2.14324477e-06      -3.82890326e-06 
       8.81018614e-08       2.14324481e-06      -3.82890382e-06 
       3.14345354e-07       2.14324499e-06      -3.82890442e-06 
      -9.48069663e-08       2.46871333e-06      -4.40909186e-06 
      -3.35925278e-07       2.46871313e-06      -4.40909120e-06 
       9.38041831e-08       2.46871320e-06      -4.40909185e-06 
       3.34922495e-07       2.46871340e-06      -4.40909250e-06 
      -9.48069663e-08       2.46871333e-06      -4.40909186e-06 
      -3.35925278e-07       2.46871313e-06      -4.40909120e-06 
       9.38041831e-08       2.46871320e-06      -4.40909185e-06 
       3.34922495e-07       2.46871340e-06      -4.40909250e-06 
      -1.00417472e-07       2.81466034e-06      -5.02551277e-06 
      -3.56071165e-07       2.81466012e-06      -5.02551206e-06 
       9.93617473e-08       2.81466022e-06      -5.02551278e-06 
       3.55015441e-07       2.81466044e-06      -5.02551349e-06 
      -1.00417472e-07       2.81466034e-06      -5.02551277e-06 
      -3.56071165e-07       2.81466012e-06      -5.02551206e-06 
       9.93617473e-08       2.81466022e-06      -5.02551278e-06 
       3.55015441e-07       2.81466044e-06      -5.02551349e-06 
      -1.05883517e-07       3.18061329e-06      -5.67729111e-06 
      -3.75733155e-07       3.18061303e-06      -5.67729034e-06 
       1.04774557e-07       3.18061317e-06      -5.67729115e-06 
       3.74624195e-07       3.18061342e-06      -5.67729191e-06 
      -1.05883517e-07       3.18061329e-06      -5.67729111e-06 
      -3.75733155e-07       3.18061303e-06      -5.67729034e-06 
       1.04774557e-07       3.18061317e-06      -5.67729115e-06 
       3.74624195e-07       3.18061342e-06      -5.67729191e-06 
      -1.11205097e-07       3.56609945e-06      -6.36355142e-06 
      -3.94911244e-07       3.56609917e-06      -6.36355059e-06 
       1.10042616e-07       3.56609934e-06      -6.36355148e-06 
       3.93748762e-07       3.56609962e-06      -6.36355230e-06 
      -1.11205097e-07       3.56609945e-06      -6.36355142e-06 
      -3.94911244e-07       3.56609917e-06      -6.36355059e-06 
       1.10042616e-07       3.56609934e-06      -6.36355148e-06 
       3.93748762e-07       3.56609962e-06      -6.36355230e-06 
      -1.16382210e-07       3.97064612e-06      -7.08341821e-06 
      -4.13605428e-07       3.97064582e-06      -7.08341732e-06 
       1.15165928e-07       3.97064602e-06      -7.08341829e-06 
       4.12389145e-07       3.97064633e-06      -7.08341918e-06 
      -1.16382210e-07       3.97064612e-06      -7.08341821e-06 
      -4.13605428e-07       3.97064582e-06      -7.08341732e-06 
       1.15165928e-07       3.97064602e-06      -7.08341829e-06 
       4.12389145e-07       3.97064633e-06      -7.08341918e-06 
      -1.21414852e-07       4.39378060e-06      -7.83601602e-06 
      -4.31815703e-07       4.39378027e-06      -7.83601507e-06 
       1.20144497e-07       4.39378051e-06      -7.83601613e-06 
       4.30545348e-07       4.39378085e-06      -7.83601708e-06 
      -1.21414852e-07       4.39378060e-06      -7.83601602e-06 
      -4.31815703e-07       4.39378027e-06      -7.83601507e-06 
       1.20144497e-07       4.39378051e-06      -7.83601613e-06 
       4.30545348e-07       4.39378085e-06      -7.83601708e-06 
      -1.26303019e-07       4.83503019e-06      -8.62046937e-06 
      -4.49542067e-07       4.83502982e-06      -8.62046835e-06 
       1.24978325e-07       4.83503010e-06      -8.62046950e-06 
       4.48217373e-07       4.83503046e-06      -8.62047051e-06 
      -1.26303019e-07       4.83503019e-06      -8.62046937e-06 
      -4.49542067e-07       4.83502982e-06      -8.62046835e-06 
       1.24978325e-07       4.83503010e-06      -8.62046950e-06 
       4.48217373e-07       4.83503046e-06      -8.62047051e-06 
      -1.31046153e-07       5.29393130e-06      -9.43592058e-06 
      -4.66803740e-07       5.29393091e-06      -9.43591950e-06 
       1.29686851e-07       5.29393123e-06      -9.43592074e-06 
       4.65444439e-07       5.29393162e-06      -9.43592181e-06 
      -1.31046153e-07       5.29393130e-06      -9.43592058e-06 
      -4.66803740e-07       5.29393091e-06      -9.43591950e-06 
       1.29686851e-07       5.29393123e-06      -9.43592074e-06 
       4.65444439e-07       5.29393162e-06      -9.43592181e-06 
      -1.35664204e-07       5.77005742e-06      -1.02815849e-05 
      -4.83640794e-07       5.77005700e-06      -1.02815838e-05 
       1.34269919e-07       5.77005737e-06      -1.02815851e-05 
       4.82246509e-07       5.77005779e-06      -1.02815863e-05 
      -1.35664204e-07       5.77005742e-06      -1.02815849e-05 
      -4.83640794e-07       5.77005700e-06      -1.02815838e-05 
       1.34269919e-07       5.77005737e-06      -1.02815851e-05 
       4.82246509e-07       5.77005779e-06      -1.02815863e-05 
      -1.40157169e-07       6.26299142e-06      -1.11566964e-05 
      -5.00053225e-07       6.26299097e-06      -1.11566952e-05 
       1.38727534e-07       6.26299138e-06      -1.11566966e-05 
       4.98623590e-07       6.26299183e-06      -1.11566978e-05 
      -1.40157169e-07       6.26299142e-06      -1.11566964e-05 
      -5.00053225e-07       6.26299097e-06      -1.11566952e-05 
       1.38727534e-07       6.26299138e-06      -1.11566966e-05 
       4.98623590e-07       6.26299183e-06      -1.11566978e-05 
      -1.44525043e-07       6.77231615e-06      -1.20604889e-05 
      -5.16041028e-07       6.77231567e-06      -1.20604876e-05 
       1.43059700e-07       6.77231613e-06      -1.20604891e-05 
       5.14575685e-07       6.77231661e-06      -1.20604904e-05 
      -1.44525043e-07       6.77231615e-06      -1.20604889e-05 
      -5.16041028e-07       6.77231567e-06      -1.20604876e-05 
       1.43059700e-07       6.77231613e-06      -1.20604891e-05 
       5.14575685e-07       6.77231661e-06      -1.20604904e-05 
      -1.48767820e-07       7.29761447e-06      -1.29921963e-05 
      -5.31604198e-07       7.29761396e-06      -1.29921950e-05 
       1.47266421e-07       7.29761446e-06      -1.29921966e-05 
       5.30102799e-07       7.29761497e-06      -1.29921979e-05 
      -1.48767820e-07       7.29761447e-06      -1.29921963e-05 
      -5.31604198e-07       7.29761396e-06      -1.29921950e-05 
       1.47266421e-07       7.29761446e-06      -1.29921966e-05 
       5.30102799e-07       7.29761497e-06      -1.29921979e-05 
      -1.52885498e-07       7.83846923e-06      -1.39510528e-05 
      -5.46742731e-07       7.83846869e-06      -1.39510514e-05 
       1.51347704e-07       7.83846924e-06      -1.39510531e-05 
       5.45204937e-07       7.83846978e-06      -1.39510545e-05 
      -1.52885498e-07       7.83846923e-06      -1.39510528e-05 
      -5.46742731e-07       7.83846869e-06      -1.39510514e-05 
       1.51347704e-07       7.83846924e-06      -1.39510531e-05 
       5.45204937e-07       7.83846978e-06      -1.39510545e-05 
      -1.56878070e-07       8.39446330e-06      -1.49362921e-05 
      -5.61456622e-07       8.39446273e-06      -1.49362907e-05 
       1.55303552e-07       8.39446333e-06      -1.49362925e-05 
       5.59882104e-07       8.39446390e-06      -1.49362939e-05 
      -1.56878070e-07       8.39446330e-06      -1.49362921e-05 
      -5.61456622e-07       8.39446273e-06      -1.49362907e-05 
       1.55303552e-07       8.39446333e-06      -1.49362925e-05 
       5.59882104e-07       8.39446390e-06      -1.49362939e-05 
      -1.60745531e-07       8.96517954e-06      -1.59471483e-05 
      -5.75745865e-07       8.96517894e-06      -1.59471468e-05 
       1.59133972e-07       8.96517959e-06      -1.59471487e-05 
       5.74134306e-07       8.96518019e-06      -1.59471502e-05 
      -1.60745531e-07       8.96517954e-06      -1.59471483e-05 
      -5.75745865e-07       8.96517894e-06      -1.59471468e-05 
       1.59133972e-07       8.96517959e-06      -1.59471487e-05 
       5.74134306e-07       8.96518019e-06      -1.59471502e-05 
      -1.64487877e-07       9.55020081e-06      -1.69828553e-05 
      -5.89610457e-07       9.55020018e-06      -1.69828537e-05 
       1.62838965e-07       9.55020087e-06      -1.69828557e-05 
       5.87961545e-07       9.55020150e-06      -1.69828572e-05 
      -1.64487877e-07       9.55020081e-06      -1.69828553e-05 
      -5.89610457e-07       9.55020018e-06      -1.69828537e-05 
       1.62838965e-07       9.55020087e-06      -1.69828557e-05 
       5.87961545e-07       9.55020150e-06      -1.69828572e-05 
      -1.68105104e-07       1.01491100e-05      -1.80426470e-05 
      -6.03050394e-07       1.01491093e-05      -1.80426454e-05 
       1.66418538e-07       1.01491100e-05      -1.80426475e-05 
       6.01363827e-07       1.01491107e-05      -1.80426491e-05 
      -1.68105105e-07       1.01491100e-05      -1.80426470e-05 
      -6.03050394e-07       1.01491093e-05      -1.80426454e-05 
       1.66418538e-07       1.01491100e-05      -1.80426475e-05 
       6.01363826e-07       1.01491107e-05      -1.80426491e-05 
      -1.71600241e-07       1.07614991e-05      -1.91257757e-05 
      -6.16088646e-07       1.07614984e-05      -1.91257741e-05 
       1.69889166e-07       1.07614992e-05      -1.91257762e-05 
       6.14377570e-07       1.07614999e-05      -1.91257779e-05 
      -1.71600241e-07       1.07614991e-05      -1.91257757e-05 
      -6.16088646e-07       1.07614984e-05      -1.91257741e-05 
       1.69889166e-07       1.07614992e-05      -1.91257762e-05 
       6.14377570e-07       1.07614999e-05      -1.91257779e-05 
      -1.74989792e-07       1.13869975e-05      -2.02315672e-05 
      -6.28761887e-07       1.13869968e-05      -2.02315655e-05 
       1.73253854e-07       1.13869976e-05      -2.02315677e-05 
       6.27025948e-07       1.13869983e-05      -2.02315694e-05 
      -1.74989792e-07       1.13869975e-05      -2.02315672e-05 
      -6.28761887e-07       1.13869968e-05      -2.02315655e-05 
       1.73253854e-07       1.13869976e-05      -2.02315677e-05 
       6.27025948e-07       1.13869983e-05      -2.02315694e-05 
      -1.78273750e-07       1.20252440e-05      -2.13593654e-05 
      -6.41070111e-07       1.20252432e-05      -2.13593637e-05 
       1.76512608e-07       1.20252441e-05      -2.13593660e-05 
       6.39308968e-07       1.20252448e-05      -2.13593677e-05 
      -1.78273750e-07       1.20252440e-05      -2.13593654e-05 
      -6.41070111e-07       1.20252432e-05      -2.13593637e-05 
       1.76512608e-07       1.20252441e-05      -2.13593660e-05 
       6.39308968e-07       1.20252448e-05      -2.13593677e-05 
      -1.81452115e-07       1.26758771e-05      -2.25085146e-05 
      -6.53013315e-07       1.26758764e-05      -2.25085128e-05 
       1.79665432e-07       1.26758773e-05      -2.25085152e-05 
       6.51226633e-07       1.26758781e-05      -2.25085170e-05 
      -1.81452115e-07       1.26758771e-05      -2.25085146e-05 
      -6.53013315e-07       1.26758764e-05      -2.25085128e-05 
       1.79665432e-07       1.26758773e-05      -2.25085152e-05 
       6.51226633e-07       1.26758781e-05      -2.25085170e-05 
      -1.84524878e-07       1.33385358e-05      -2.36783590e-05 
      -6.64591494e-07       1.33385350e-05      -2.36783571e-05 
       1.82712331e-07       1.33385360e-05      -2.36783596e-05 
       6.62778946e-07       1.33385368e-05      -2.36783615e-05 
      -1.84524878e-07       1.33385358e-05      -2.36783590e-05 
      -6.64591494e-07       1.33385350e-05      -2.36783571e-05 
       1.82712331e-07       1.33385360e-05      -2.36783596e-05 
       6.62778946e-07       1.33385368e-05      -2.36783615e-05 
      -1.87492035e-07       1.40128586e-05      -2.48682426e-05 
      -6.75804642e-07       1.40128578e-05      -2.48682407e-05 
       1.85653311e-07       1.40128588e-05      -2.48682433e-05 
       6.73965916e-07       1.40128597e-05      -2.48682452e-05 
      -1.87492035e-07       1.40128586e-05      -2.48682426e-05 
      -6.75804642e-07       1.40128578e-05      -2.48682407e-05 
       1.85653311e-07       1.40128588e-05      -2.48682433e-05 
       6.73965916e-07       1.40128597e-05      -2.48682452e-05 
      -1.90353583e-07       1.46984844e-05      -2.60775096e-05 
      -6.86652753e-07       1.46984835e-05      -2.60775077e-05 
       1.88488375e-07       1.46984846e-05      -2.60775103e-05 
       6.84787546e-07       1.46984854e-05      -2.60775123e-05 
      -1.90353583e-07       1.46984844e-05      -2.60775096e-05 
      -6.86652753e-07       1.46984835e-05      -2.60775077e-05 
       1.88488375e-07       1.46984846e-05      -2.60775103e-05 
       6.84787546e-07       1.46984854e-05      -2.60775123e-05 
      -1.93109512e-07       1.53950517e-05      -2.73055042e-05 
      -6.97135823e-07       1.53950509e-05      -2.73055022e-05 
       1.91217531e-07       1.53950520e-05      -2.73055049e-05 
       6.95243842e-07       1.53950528e-05      -2.73055070e-05 
      -1.93109512e-07       1.53950517e-05      -2.73055042e-05 
      -6.97135823e-07       1.53950509e-05      -2.73055022e-05 