# vtk DataFile Version 2.0
./output/onsasExample_BladeCantileverBeamNoPitch_windVel3DDynamic 3D/onsasExample_BladeCantileverBeamNoPitch_windVel3DDynamic 3D_0046.vtk
ASCII
DATASET UNSTRUCTURED_GRID

POINTS 800 float
       3.895347e-24      -7.180703e-02      -7.180703e-02 
       1.587405e-23       7.180703e-02      -7.180703e-02 
      -3.895347e-24       7.180703e-02       7.180703e-02 
      -1.587405e-23      -7.180703e-02       7.180703e-02 
       2.000000e-01      -7.180702e-02      -7.180706e-02 
       2.000000e-01       7.180705e-02      -7.180706e-02 
       2.000000e-01       7.180705e-02       7.180701e-02 
       2.000000e-01      -7.180702e-02       7.180701e-02 
       2.000000e-01      -7.180702e-02      -7.180706e-02 
       2.000000e-01       7.180705e-02      -7.180706e-02 
       2.000000e-01       7.180705e-02       7.180701e-02 
       2.000000e-01      -7.180702e-02       7.180701e-02 
       4.000000e-01      -7.180698e-02      -7.180713e-02 
       3.999999e-01       7.180709e-02      -7.180713e-02 
       4.000000e-01       7.180709e-02       7.180693e-02 
       4.000001e-01      -7.180698e-02       7.180693e-02 
       4.000000e-01      -7.180698e-02      -7.180713e-02 
       3.999999e-01       7.180709e-02      -7.180713e-02 
       4.000000e-01       7.180709e-02       7.180693e-02 
       4.000001e-01      -7.180698e-02       7.180693e-02 
       6.000000e-01      -7.180691e-02      -7.180726e-02 
       5.999999e-01       7.180715e-02      -7.180726e-02 
       6.000000e-01       7.180715e-02       7.180681e-02 
       6.000001e-01      -7.180691e-02       7.180681e-02 
       6.000000e-01      -7.180691e-02      -7.180726e-02 
       5.999999e-01       7.180715e-02      -7.180726e-02 
       6.000000e-01       7.180715e-02       7.180681e-02 
       6.000001e-01      -7.180691e-02       7.180681e-02 
       8.000000e-01      -7.180682e-02      -7.180743e-02 
       7.999999e-01       7.180725e-02      -7.180743e-02 
       8.000000e-01       7.180725e-02       7.180664e-02 
       8.000001e-01      -7.180682e-02       7.180664e-02 
       8.000000e-01      -7.180682e-02      -7.180743e-02 
       7.999999e-01       7.180725e-02      -7.180743e-02 
       8.000000e-01       7.180725e-02       7.180664e-02 
       8.000001e-01      -7.180682e-02       7.180664e-02 
       1.000000e+00      -7.180670e-02      -7.180764e-02 
       9.999999e-01       7.180736e-02      -7.180764e-02 
       1.000000e+00       7.180736e-02       7.180642e-02 
       1.000000e+00      -7.180670e-02       7.180642e-02 
       1.000000e+00      -7.180670e-02      -7.180764e-02 
       9.999999e-01       7.180736e-02      -7.180764e-02 
       1.000000e+00       7.180736e-02       7.180642e-02 
       1.000000e+00      -7.180670e-02       7.180642e-02 
       1.200000e+00      -7.180656e-02      -7.180791e-02 
       1.200000e+00       7.180751e-02      -7.180791e-02 
       1.200000e+00       7.180751e-02       7.180616e-02 
       1.200000e+00      -7.180656e-02       7.180616e-02 
       1.200000e+00      -7.180656e-02      -7.180791e-02 
       1.200000e+00       7.180751e-02      -7.180791e-02 
       1.200000e+00       7.180751e-02       7.180616e-02 
       1.200000e+00      -7.180656e-02       7.180616e-02 
       1.400000e+00      -7.180639e-02      -7.180822e-02 
       1.400000e+00       7.180767e-02      -7.180822e-02 
       1.400000e+00       7.180767e-02       7.180585e-02 
       1.400000e+00      -7.180639e-02       7.180585e-02 
       1.400000e+00      -7.180639e-02      -7.180822e-02 
       1.400000e+00       7.180767e-02      -7.180822e-02 
       1.400000e+00       7.180767e-02       7.180585e-02 
       1.400000e+00      -7.180639e-02       7.180585e-02 
       1.600000e+00      -7.180620e-02      -7.180857e-02 
       1.600000e+00       7.180787e-02      -7.180857e-02 
       1.600000e+00       7.180787e-02       7.180550e-02 
       1.600000e+00      -7.180620e-02       7.180550e-02 
       1.600000e+00      -7.180620e-02      -7.180857e-02 
       1.600000e+00       7.180787e-02      -7.180857e-02 
       1.600000e+00       7.180787e-02       7.180550e-02 
       1.600000e+00      -7.180620e-02       7.180550e-02 
       1.800000e+00      -7.180599e-02      -7.180896e-02 
       1.800000e+00       7.180808e-02      -7.180896e-02 
       1.800000e+00       7.180808e-02       7.180510e-02 
       1.800000e+00      -7.180599e-02       7.180510e-02 
       1.800000e+00      -7.180599e-02      -7.180896e-02 
       1.800000e+00       7.180808e-02      -7.180896e-02 
       1.800000e+00       7.180808e-02       7.180510e-02 
       1.800000e+00      -7.180599e-02       7.180510e-02 
       2.000000e+00      -7.180575e-02      -7.180940e-02 
       2.000000e+00       7.180832e-02      -7.180940e-02 
       2.000000e+00       7.180832e-02       7.180467e-02 
       2.000000e+00      -7.180575e-02       7.180467e-02 
       2.000000e+00      -7.180575e-02      -7.180940e-02 
       2.000000e+00       7.180832e-02      -7.180940e-02 
       2.000000e+00       7.180832e-02       7.180467e-02 
       2.000000e+00      -7.180575e-02       7.180467e-02 
       2.200000e+00      -7.180549e-02      -7.180988e-02 
       2.200000e+00       7.180858e-02      -7.180988e-02 
       2.200000e+00       7.180858e-02       7.180419e-02 
       2.200000e+00      -7.180549e-02       7.180419e-02 
       2.200000e+00      -7.180549e-02      -7.180988e-02 
       2.200000e+00       7.180858e-02      -7.180988e-02 
       2.200000e+00       7.180858e-02       7.180419e-02 
       2.200000e+00      -7.180549e-02       7.180419e-02 
       2.400000e+00      -7.180521e-02      -7.181039e-02 
       2.400000e+00       7.180886e-02      -7.181039e-02 
       2.400000e+00       7.180886e-02       7.180367e-02 
       2.400000e+00      -7.180521e-02       7.180367e-02 
       2.400000e+00      -7.180521e-02      -7.181039e-02 
       2.400000e+00       7.180886e-02      -7.181039e-02 
       2.400000e+00       7.180886e-02       7.180367e-02 
       2.400000e+00      -7.180521e-02       7.180367e-02 
       2.600000e+00      -7.180491e-02      -7.181095e-02 
       2.600000e+00       7.180916e-02      -7.181095e-02 
       2.600000e+00       7.180916e-02       7.180312e-02 
       2.600000e+00      -7.180491e-02       7.180312e-02 
       2.600000e+00      -7.180491e-02      -7.181095e-02 
       2.600000e+00       7.180916e-02      -7.181095e-02 
       2.600000e+00       7.180916e-02       7.180312e-02 
       2.600000e+00      -7.180491e-02       7.180312e-02 
       2.800000e+00      -7.180459e-02      -7.181154e-02 
       2.800000e+00       7.180948e-02      -7.181154e-02 
       2.800000e+00       7.180948e-02       7.180252e-02 
       2.800000e+00      -7.180459e-02       7.180252e-02 
       2.800000e+00      -7.180459e-02      -7.181154e-02 
       2.800000e+00       7.180948e-02      -7.181154e-02 
       2.800000e+00       7.180948e-02       7.180252e-02 
       2.800000e+00      -7.180459e-02       7.180252e-02 
       3.000000e+00      -7.180424e-02      -7.181217e-02 
       3.000000e+00       7.180982e-02      -7.181217e-02 
       3.000000e+00       7.180982e-02       7.180189e-02 
       3.000000e+00      -7.180424e-02       7.180189e-02 
       3.000000e+00      -7.180424e-02      -7.181217e-02 
       3.000000e+00       7.180982e-02      -7.181217e-02 
       3.000000e+00       7.180982e-02       7.180189e-02 
       3.000000e+00      -7.180424e-02       7.180189e-02 
       3.200000e+00      -7.180388e-02      -7.181284e-02 
       3.200000e+00       7.181019e-02      -7.181284e-02 
       3.200000e+00       7.181019e-02       7.180122e-02 
       3.200000e+00      -7.180388e-02       7.180122e-02 
       3.200000e+00      -7.180388e-02      -7.181284e-02 
       3.200000e+00       7.181019e-02      -7.181284e-02 
       3.200000e+00       7.181019e-02       7.180122e-02 
       3.200000e+00      -7.180388e-02       7.180122e-02 
       3.400000e+00      -7.180350e-02      -7.181354e-02 
       3.400000e+00       7.181057e-02      -7.181354e-02 
       3.400000e+00       7.181057e-02       7.180052e-02 
       3.400000e+00      -7.180350e-02       7.180052e-02 
       3.400000e+00      -7.180350e-02      -7.181354e-02 
       3.400000e+00       7.181057e-02      -7.181354e-02 
       3.400000e+00       7.181057e-02       7.180052e-02 
       3.400000e+00      -7.180350e-02       7.180052e-02 
       3.600000e+00      -7.180310e-02      -7.181428e-02 
       3.600000e+00       7.181097e-02      -7.181428e-02 
       3.600000e+00       7.181097e-02       7.179978e-02 
       3.600000e+00      -7.180310e-02       7.179978e-02 
       3.600000e+00      -7.180310e-02      -7.181428e-02 
       3.600000e+00       7.181097e-02      -7.181428e-02 
       3.600000e+00       7.181097e-02       7.179978e-02 
       3.600000e+00      -7.180310e-02       7.179978e-02 
       3.800000e+00      -7.180268e-02      -7.181505e-02 
       3.800000e+00       7.181139e-02      -7.181505e-02 
       3.800000e+00       7.181139e-02       7.179901e-02 
       3.800000e+00      -7.180268e-02       7.179901e-02 
       3.800000e+00      -7.180268e-02      -7.181505e-02 
       3.800000e+00       7.181139e-02      -7.181505e-02 
       3.800000e+00       7.181139e-02       7.179901e-02 
       3.800000e+00      -7.180268e-02       7.179901e-02 
       4.000000e+00      -7.180224e-02      -7.181586e-02 
       4.000000e+00       7.181183e-02      -7.181586e-02 
       4.000000e+00       7.181183e-02       7.179821e-02 
       4.000000e+00      -7.180224e-02       7.179821e-02 
       4.000000e+00      -7.180224e-02      -7.181586e-02 
       4.000000e+00       7.181183e-02      -7.181586e-02 
       4.000000e+00       7.181183e-02       7.179821e-02 
       4.000000e+00      -7.180224e-02       7.179821e-02 
       4.200000e+00      -7.180179e-02      -7.181670e-02 
[...]
POINT_DATA       800 
VECTORS Displacements float
       3.89534717e-24      -1.38777878e-17       0.00000000e+00 
       1.58740532e-23      -1.38777878e-17       0.00000000e+00 
      -3.89534717e-24       1.38777878e-17       0.00000000e+00 
      -1.58740532e-23       1.38777878e-17       0.00000000e+00 
      -8.27415875e-09       1.36246751e-08      -2.51282652e-08 
      -2.77780918e-08       1.36246738e-08      -2.51282348e-08 
       8.19205973e-09       1.36246483e-08      -2.51282394e-08 
       2.76959927e-08       1.36246496e-08      -2.51282697e-08 
      -8.27415875e-09       1.36246751e-08      -2.51282652e-08 
      -2.77780918e-08       1.36246738e-08      -2.51282348e-08 
       8.19205973e-09       1.36246483e-08      -2.51282394e-08 
       2.76959927e-08       1.36246496e-08      -2.51282697e-08 
      -1.63847264e-08       5.41477447e-08      -9.98582034e-08 
      -5.50146059e-08       5.41477395e-08      -9.98581380e-08 
       1.62203764e-08       5.41476932e-08      -9.98581556e-08 
       5.48502559e-08       5.41476984e-08      -9.98582211e-08 
      -1.63847264e-08       5.41477447e-08      -9.98582034e-08 
      -5.50146059e-08       5.41477395e-08      -9.98581380e-08 
       1.62203764e-08       5.41476932e-08      -9.98581556e-08 
       5.48502559e-08       5.41476984e-08      -9.98582211e-08 
      -2.43317012e-08       1.21042817e-07      -2.23207570e-07 
      -8.17095407e-08       1.21042805e-07      -2.23207465e-07 
       2.40849518e-08       1.21042743e-07      -2.23207504e-07 
       8.14627913e-08       1.21042754e-07      -2.23207609e-07 
      -2.43317012e-08       1.21042817e-07      -2.23207570e-07 
      -8.17095407e-08       1.21042805e-07      -2.23207465e-07 
       2.40849518e-08       1.21042743e-07      -2.23207504e-07 
       8.14627913e-08       1.21042754e-07      -2.23207609e-07 
      -3.21150819e-08       2.13783499e-07      -3.94194121e-07 
      -1.07862895e-07       2.13783479e-07      -3.94193972e-07 
       3.17857868e-08       2.13783404e-07      -3.94194040e-07 
       1.07533600e-07       2.13783424e-07      -3.94194189e-07 
      -3.21150819e-08       2.13783499e-07      -3.94194121e-07 
      -1.07862895e-07       2.13783479e-07      -3.94193972e-07 
       3.17857868e-08       2.13783404e-07      -3.94194040e-07 
       1.07533600e-07       2.13783424e-07      -3.94194189e-07 
      -3.97348670e-08       3.31843401e-07      -6.11835611e-07 
      -1.33474667e-07       3.31843370e-07      -6.11835415e-07 
       3.93228832e-08       3.31843287e-07      -6.11835519e-07 
       1.33062683e-07       3.31843317e-07      -6.11835715e-07 
      -3.97348670e-08       3.31843401e-07      -6.11835611e-07 
      -1.33474667e-07       3.31843370e-07      -6.11835415e-07 
       3.93228832e-08       3.31843287e-07      -6.11835519e-07 
       1.33062683e-07       3.31843317e-07      -6.11835715e-07 
      -4.71910548e-08       4.74696128e-07      -8.75149797e-07 
      -1.58544855e-07       4.74696085e-07      -8.75149549e-07 
       4.66962431e-08       4.74695997e-07      -8.75149696e-07 
       1.58050044e-07       4.74696040e-07      -8.75149943e-07 
      -4.71910548e-08       4.74696128e-07      -8.75149797e-07 
      -1.58544855e-07       4.74696085e-07      -8.75149549e-07 
       4.66962431e-08       4.74695997e-07      -8.75149696e-07 
       1.58050044e-07       4.74696040e-07      -8.75149943e-07 
      -5.44836440e-08       6.41815291e-07      -1.18315443e-06 
      -1.83073459e-07       6.41815233e-07      -1.18315413e-06 
       5.39058669e-08       6.41815144e-07      -1.18315433e-06 
       1.82495682e-07       6.41815201e-07      -1.18315463e-06 
      -5.44836440e-08       6.41815291e-07      -1.18315443e-06 
      -1.83073459e-07       6.41815233e-07      -1.18315413e-06 
       5.39058669e-08       6.41815144e-07      -1.18315433e-06 
       1.82495682e-07       6.41815201e-07      -1.18315463e-06 
      -6.16126330e-08       8.32674496e-07      -1.53486728e-06 
      -2.07060476e-07       8.32674423e-07      -1.53486692e-06 
       6.09517570e-08       8.32674335e-07      -1.53486717e-06 
       2.06399600e-07       8.32674408e-07      -1.53486753e-06 
      -6.16126330e-08       8.32674496e-07      -1.53486728e-06 
      -2.07060476e-07       8.32674423e-07      -1.53486692e-06 
       6.09517570e-08       8.32674335e-07      -1.53486717e-06 
       2.06399600e-07       8.32674408e-07      -1.53486753e-06 
      -6.85780206e-08       1.04674735e-06      -1.92930608e-06 
      -2.30505904e-07       1.04674726e-06      -1.92930566e-06 
       6.78339145e-08       1.04674718e-06      -1.92930597e-06 
       2.29761798e-07       1.04674727e-06      -1.92930639e-06 
      -6.85780206e-08       1.04674735e-06      -1.92930608e-06 
      -2.30505904e-07       1.04674726e-06      -1.92930566e-06 
       6.78339145e-08       1.04674718e-06      -1.92930597e-06 
       2.29761798e-07       1.04674727e-06      -1.92930639e-06 
      -7.53798048e-08       1.28350747e-06      -2.36548860e-06 
      -2.53409743e-07       1.28350736e-06      -2.36548812e-06 
       7.45523407e-08       1.28350728e-06      -2.36548849e-06 
       2.52582279e-07       1.28350739e-06      -2.36548897e-06 
      -7.53798046e-08       1.28350747e-06      -2.36548860e-06 
      -2.53409743e-07       1.28350736e-06      -2.36548812e-06 
       7.45523407e-08       1.28350728e-06      -2.36548849e-06 
       2.52582279e-07       1.28350739e-06      -2.36548897e-06 
      -8.20139139e-08       1.54243795e-06      -2.84245168e-06 
      -2.75788333e-07       1.54243782e-06      -2.84245114e-06 
       8.11312848e-08       1.54243777e-06      -2.84245159e-06 
       2.74905703e-07       1.54243790e-06      -2.84245212e-06 
      -8.20139139e-08       1.54243795e-06      -2.84245168e-06 
      -2.75788333e-07       1.54243782e-06      -2.84245114e-06 
       8.11312848e-08       1.54243777e-06      -2.84245159e-06 
       2.74905703e-07       1.54243790e-06      -2.84245212e-06 
      -8.85037634e-08       1.82305957e-06      -3.35930554e-06 
      -2.97685220e-07       1.82305942e-06      -3.35930495e-06 
       8.75656356e-08       1.82305938e-06      -3.35930546e-06 
       2.96747092e-07       1.82305954e-06      -3.35930605e-06 
      -8.85037634e-08       1.82305957e-06      -3.35930554e-06 
      -2.97685220e-07       1.82305942e-06      -3.35930495e-06 
       8.75656356e-08       1.82305938e-06      -3.35930546e-06 
       2.96747092e-07       1.82305954e-06      -3.35930605e-06 
      -9.48493506e-08       2.12490239e-06      -3.91517798e-06 
      -3.19100402e-07       2.12490221e-06      -3.91517733e-06 
       9.38553968e-08       2.12490221e-06      -3.91517793e-06 
       3.18106448e-07       2.12490238e-06      -3.91517858e-06 
      -9.48493506e-08       2.12490239e-06      -3.91517798e-06 
      -3.19100402e-07       2.12490221e-06      -3.91517733e-06 
       9.38553968e-08       2.12490221e-06      -3.91517793e-06 
       3.18106448e-07       2.12490238e-06      -3.91517858e-06 
      -1.01050670e-07       2.44749648e-06      -4.50919683e-06 
      -3.40033874e-07       2.44749628e-06      -4.50919612e-06 
       1.00000573e-07       2.44749630e-06      -4.50919679e-06 
       3.38983777e-07       2.44749650e-06      -4.50919750e-06 
      -1.01050670e-07       2.44749648e-06      -4.50919683e-06 
      -3.40033874e-07       2.44749628e-06      -4.50919612e-06 
       1.00000573e-07       2.44749630e-06      -4.50919679e-06 
       3.38983777e-07       2.44749650e-06      -4.50919750e-06 
      -1.07107721e-07       2.79037191e-06      -5.14048987e-06 
      -3.60485634e-07       2.79037169e-06      -5.14048910e-06 
       1.06001166e-07       2.79037174e-06      -5.14048986e-06 
       3.59379079e-07       2.79037196e-06      -5.14049063e-06 
      -1.07107721e-07       2.79037191e-06      -5.14048987e-06 
      -3.60485634e-07       2.79037169e-06      -5.14048910e-06 
       1.06001166e-07       2.79037174e-06      -5.14048986e-06 
       3.59379079e-07       2.79037196e-06      -5.14049063e-06 
      -1.13020498e-07       3.15305876e-06      -5.80818493e-06 
      -3.80455678e-07       3.15305851e-06      -5.80818410e-06 
       1.11857181e-07       3.15305859e-06      -5.80818494e-06 
       3.79292361e-07       3.15305884e-06      -5.80818578e-06 
      -1.13020498e-07       3.15305876e-06      -5.80818493e-06 
      -3.80455678e-07       3.15305851e-06      -5.80818410e-06 
       1.11857181e-07       3.15305859e-06      -5.80818494e-06 
       3.79292361e-07       3.15305884e-06      -5.80818578e-06 
      -1.18788997e-07       3.53508709e-06      -6.51140982e-06 
      -3.99944002e-07       3.53508682e-06      -6.51140892e-06 
       1.17568621e-07       3.53508693e-06      -6.51140985e-06 
       3.98723626e-07       3.53508721e-06      -6.51141075e-06 
      -1.18788997e-07       3.53508709e-06      -6.51140982e-06 
      -3.99944002e-07       3.53508682e-06      -6.51140892e-06 
       1.17568621e-07       3.53508693e-06      -6.51140985e-06 
       3.98723626e-07       3.53508721e-06      -6.51141075e-06 
      -1.24413214e-07       3.93598698e-06      -7.24929233e-06 
      -4.18950601e-07       3.93598668e-06      -7.24929136e-06 
       1.23135491e-07       3.93598682e-06      -7.24929239e-06 
       4.17672878e-07       3.93598713e-06      -7.24929335e-06 
      -1.24413214e-07       3.93598698e-06      -7.24929233e-06 
      -4.18950601e-07       3.93598668e-06      -7.24929136e-06 
       1.23135491e-07       3.93598682e-06      -7.24929239e-06 
       4.17672878e-07       3.93598713e-06      -7.24929335e-06 
      -1.29893147e-07       4.35528849e-06      -8.02096028e-06 
      -4.37475473e-07       4.35528816e-06      -8.02095925e-06 
       1.28557792e-07       4.35528834e-06      -8.02096036e-06 
       4.36140118e-07       4.35528867e-06      -8.02096139e-06 
      -1.29893147e-07       4.35528849e-06      -8.02096028e-06 
      -4.37475473e-07       4.35528816e-06      -8.02095925e-06 
       1.28557792e-07       4.35528834e-06      -8.02096036e-06 
       4.36140118e-07       4.35528867e-06      -8.02096139e-06 
      -1.35228792e-07       4.79252170e-06      -8.82554147e-06 
      -4.55518615e-07       4.79252134e-06      -8.82554037e-06 
       1.33835529e-07       4.79252155e-06      -8.82554158e-06 
       4.54125352e-07       4.79252191e-06      -8.82554268e-06 
      -1.35228792e-07       4.79252170e-06      -8.82554147e-06 
      -4.55518614e-07       4.79252134e-06      -8.82554037e-06 
       1.33835529e-07       4.79252155e-06      -8.82554158e-06 
       4.54125352e-07       4.79252191e-06      -8.82554268e-06 
      -1.40419903e-07       5.24722611e-06      -9.66218238e-06 
      -4.73100074e-07       5.24722572e-06      -9.66218123e-06 
       1.38988370e-07       5.24722598e-06      -9.66218253e-06 
       4.71668541e-07       5.24722637e-06      -9.66218369e-06 
      -1.40419903e-07       5.24722611e-06      -9.66218238e-06 
      -4.73100074e-07       5.24722572e-06      -9.66218123e-06 
       1.38988370e-07       5.24722598e-06      -9.66218253e-06 
       4.71668541e-07       5.24722637e-06      -9.66218369e-06 
      -1.45485353e-07       5.71897872e-06      -1.05301014e-05 
      -4.90258778e-07       5.71897830e-06      -1.05301002e-05 
       1.44015157e-07       5.71897860e-06      -1.05301016e-05 
       4.88788582e-07       5.71897902e-06      -1.05301028e-05 
      -1.45485353e-07       5.71897872e-06      -1.05301014e-05 
      -4.90258778e-07       5.71897830e-06      -1.05301002e-05 
       1.44015157e-07       5.71897860e-06      -1.05301016e-05 
       4.88788582e-07       5.71897902e-06      -1.05301028e-05 
      -1.50425135e-07       6.20736578e-06      -1.14285343e-05 
      -5.06994721e-07       6.20736533e-06      -1.14285330e-05 
       1.48915894e-07       6.20736568e-06      -1.14285345e-05 
       5.05485481e-07       6.20736612e-06      -1.14285358e-05 
      -1.50425135e-07       6.20736578e-06      -1.14285343e-05 
      -5.06994721e-07       6.20736533e-06      -1.14285330e-05 
       1.48915894e-07       6.20736568e-06      -1.14285345e-05 
       5.05485481e-07       6.20736612e-06      -1.14285358e-05 
      -1.55239245e-07       6.71197355e-06      -1.23567167e-05 
      -5.23307899e-07       6.71197308e-06      -1.23567154e-05 
       1.53690586e-07       6.71197347e-06      -1.23567170e-05 
       5.21759239e-07       6.71197394e-06      -1.23567183e-05 
      -1.55239245e-07       6.71197355e-06      -1.23567167e-05 
      -5.23307899e-07       6.71197308e-06      -1.23567154e-05 
       1.53690586e-07       6.71197347e-06      -1.23567170e-05 
       5.21759239e-07       6.71197394e-06      -1.23567183e-05 
      -1.59927679e-07       7.23238831e-06      -1.33138845e-05 
      -5.39198308e-07       7.23238780e-06      -1.33138830e-05 
       1.58339236e-07       7.23238824e-06      -1.33138847e-05 
       5.37609865e-07       7.23238874e-06      -1.33138861e-05 
      -1.59927679e-07       7.23238831e-06      -1.33138845e-05 
      -5.39198308e-07       7.23238780e-06      -1.33138830e-05 
       1.58339236e-07       7.23238824e-06      -1.33138847e-05 
       5.37609865e-07       7.23238874e-06      -1.33138861e-05 
      -1.64490433e-07       7.76819630e-06      -1.42992732e-05 
      -5.54665943e-07       7.76819577e-06      -1.42992717e-05 
       1.62861851e-07       7.76819625e-06      -1.42992735e-05 
       5.53037362e-07       7.76819678e-06      -1.42992749e-05 
      -1.64490433e-07       7.76819630e-06      -1.42992732e-05 
      -5.54665943e-07       7.76819577e-06      -1.42992717e-05 
       1.62861851e-07       7.76819625e-06      -1.42992735e-05 
       5.53037362e-07       7.76819678e-06      -1.42992749e-05 
      -1.68927500e-07       8.31898379e-06      -1.53121186e-05 
      -5.69710798e-07       8.31898323e-06      -1.53121170e-05 
       1.67258436e-07       8.31898375e-06      -1.53121189e-05 
       5.68041734e-07       8.31898431e-06      -1.53121205e-05 
      -1.68927500e-07       8.31898379e-06      -1.53121186e-05 
      -5.69710798e-07       8.31898323e-06      -1.53121170e-05 
       1.67258436e-07       8.31898375e-06      -1.53121189e-05 
       5.68041734e-07       8.31898431e-06      -1.53121205e-05 
      -1.73238875e-07       8.88433704e-06      -1.63516564e-05 
      -5.84332867e-07       8.88433645e-06      -1.63516548e-05 
       1.71528995e-07       8.88433702e-06      -1.63516568e-05 
       5.82622988e-07       8.88433761e-06      -1.63516584e-05 
      -1.73238875e-07       8.88433704e-06      -1.63516564e-05 
      -5.84332867e-07       8.88433645e-06      -1.63516548e-05 
       1.71528995e-07       8.88433702e-06      -1.63516568e-05 
       5.82622988e-07       8.88433761e-06      -1.63516584e-05 
      -1.77424555e-07       9.46384232e-06      -1.74171223e-05 
      -5.98532148e-07       9.46384170e-06      -1.74171207e-05 
       1.75673533e-07       9.46384231e-06      -1.74171228e-05 
       5.96781126e-07       9.46384293e-06      -1.74171244e-05 
      -1.77424555e-07       9.46384232e-06      -1.74171223e-05 
      -5.98532148e-07       9.46384170e-06      -1.74171207e-05 
       1.75673533e-07       9.46384231e-06      -1.74171228e-05 
       5.96781126e-07       9.46384293e-06      -1.74171244e-05 
      -1.81484535e-07       1.00570859e-05      -1.85077522e-05 
      -6.12308636e-07       1.00570852e-05      -1.85077504e-05 
       1.79692054e-07       1.00570859e-05      -1.85077526e-05 
       6.10516155e-07       1.00570865e-05      -1.85077543e-05 
      -1.81484535e-07       1.00570859e-05      -1.85077522e-05 
      -6.12308636e-07       1.00570852e-05      -1.85077504e-05 
       1.79692054e-07       1.00570859e-05      -1.85077526e-05 
       6.10516155e-07       1.00570865e-05      -1.85077543e-05 
      -1.85421468e-07       1.06636634e-05      -1.96227998e-05 
      -6.25685176e-07       1.06636627e-05      -1.96227980e-05 
       1.83600613e-07       1.06636634e-05      -1.96228003e-05 
       6.23864320e-07       1.06636641e-05      -1.96228021e-05 
      -1.85421468e-07       1.06636634e-05      -1.96227998e-05 
      -6.25685176e-07       1.06636627e-05      -1.96227980e-05 
       1.83600613e-07       1.06636634e-05      -1.96228003e-05 
       6.23864320e-07       1.06636641e-05      -1.96228021e-05 
      -1.89250700e-07       1.12832078e-05      -2.07615899e-05 
      -6.38697105e-07       1.12832071e-05      -2.07615880e-05 
       1.87401096e-07       1.12832078e-05      -2.07615904e-05 
       6.36847501e-07       1.12832085e-05      -2.07615922e-05 
      -1.89250700e-07       1.12832078e-05      -2.07615899e-05 
      -6.38697105e-07       1.12832071e-05      -2.07615880e-05 
       1.87401096e-07       1.12832078e-05      -2.07615904e-05 
       6.36847501e-07       1.12832085e-05      -2.07615922e-05 
      -1.92972222e-07       1.19153613e-05      -2.19234641e-05 
      -6.51344418e-07       1.19153606e-05      -2.19234622e-05 
       1.91093509e-07       1.19153614e-05      -2.19234647e-05 
       6.49465704e-07       1.19153621e-05      -2.19234666e-05 
      -1.92972222e-07       1.19153613e-05      -2.19234641e-05 
      -6.51344418e-07       1.19153606e-05      -2.19234622e-05 
       1.91093509e-07       1.19153614e-05      -2.19234647e-05 
       6.49465704e-07       1.19153621e-05      -2.19234666e-05 
      -1.96586033e-07       1.25597662e-05      -2.31077643e-05 
      -6.63627110e-07       1.25597655e-05      -2.31077624e-05 
       1.94677855e-07       1.25597663e-05      -2.31077649e-05 
       6.61718931e-07       1.25597671e-05      -2.31077669e-05 
      -1.96586033e-07       1.25597662e-05      -2.31077643e-05 
      -6.63627110e-07       1.25597655e-05      -2.31077624e-05 
       1.94677855e-07       1.25597663e-05      -2.31077649e-05 
       6.61718931e-07       1.25597671e-05      -2.31077669e-05 
      -2.00092126e-07       1.32160647e-05      -2.43138321e-05 
      -6.75545176e-07       1.32160639e-05      -2.43138301e-05 
       1.98154140e-07       1.32160648e-05      -2.43138328e-05 
       6.73607190e-07       1.32160656e-05      -2.43138348e-05 
      -2.00092126e-07       1.32160647e-05      -2.43138321e-05 
      -6.75545176e-07       1.32160639e-05      -2.43138301e-05 
       1.98154140e-07       1.32160648e-05      -2.43138328e-05 
       6.73607190e-07       1.32160656e-05      -2.43138348e-05 
      -2.03490496e-07       1.38838990e-05      -2.55410093e-05 
      -6.87098611e-07       1.38838982e-05      -2.55410073e-05 
       2.01522369e-07       1.38838991e-05      -2.55410100e-05 
       6.85130485e-07       1.38838999e-05      -2.55410121e-05 
      -2.03490496e-07       1.38838990e-05      -2.55410093e-05 
      -6.87098611e-07       1.38838982e-05      -2.55410073e-05 
       2.01522369e-07       1.38838991e-05      -2.55410100e-05 
       6.85130485e-07       1.38838999e-05      -2.55410121e-05 
      -2.06781138e-07       1.45629113e-05      -2.67886376e-05 
      -6.98287410e-07       1.45629105e-05      -2.67886355e-05 
       2.04782549e-07       1.45629114e-05      -2.67886383e-05 
       6.96288821e-07       1.45629123e-05      -2.67886404e-05 
      -2.06781138e-07       1.45629113e-05      -2.67886376e-05 
      -6.98287410e-07       1.45629105e-05      -2.67886355e-05 
       2.04782549e-07       1.45629114e-05      -2.67886383e-05 
       6.96288821e-07       1.45629123e-05      -2.67886404e-05 
      -2.09964044e-07       1.52527439e-05      -2.80560587e-05 
      -7.09111566e-07       1.52527430e-05      -2.80560565e-05 
       2.07934685e-07       1.52527440e-05      -2.80560594e-05 
       7.07082205e-07       1.52527449e-05      -2.80560616e-05 
      -2.09964044e-07       1.52527439e-05      -2.80560587e-05 
      -7.09111566e-07       1.52527430e-05      -2.80560565e-05 