# vtk DataFile Version 2.0
./output/onsasExample_BladeCantileverBeamPitch_windVel3DDynamic 3D/onsasExample_BladeCantileverBeamPitch_windVel3DDynamic 3D_0104.vtk
ASCII
DATASET UNSTRUCTURED_GRID

POINTS 800 float
      -6.812707e-24      -7.180703e-02      -7.180703e-02 
       3.440345e-24       7.180703e-02      -7.180703e-02 
       6.812707e-24       7.180703e-02       7.180703e-02 
      -3.440345e-24      -7.180703e-02       7.180703e-02 
       2.000000e-01      -7.180702e-02      -7.180706e-02 
       2.000000e-01       7.180705e-02      -7.180706e-02 
       2.000000e-01       7.180705e-02       7.180701e-02 
       2.000000e-01      -7.180702e-02       7.180701e-02 
       2.000000e-01      -7.180702e-02      -7.180706e-02 
       2.000000e-01       7.180705e-02      -7.180706e-02 
       2.000000e-01       7.180705e-02       7.180701e-02 
       2.000000e-01      -7.180702e-02       7.180701e-02 
       4.000000e-01      -7.180698e-02      -7.180714e-02 
       3.999999e-01       7.180709e-02      -7.180714e-02 
       4.000000e-01       7.180709e-02       7.180693e-02 
       4.000001e-01      -7.180698e-02       7.180693e-02 
       4.000000e-01      -7.180698e-02      -7.180714e-02 
       3.999999e-01       7.180709e-02      -7.180714e-02 
       4.000000e-01       7.180709e-02       7.180693e-02 
       4.000001e-01      -7.180698e-02       7.180693e-02 
       6.000000e-01      -7.180691e-02      -7.180727e-02 
       5.999999e-01       7.180716e-02      -7.180727e-02 
       6.000000e-01       7.180716e-02       7.180680e-02 
       6.000001e-01      -7.180691e-02       7.180680e-02 
       6.000000e-01      -7.180691e-02      -7.180727e-02 
       5.999999e-01       7.180716e-02      -7.180727e-02 
       6.000000e-01       7.180716e-02       7.180680e-02 
       6.000001e-01      -7.180691e-02       7.180680e-02 
       8.000000e-01      -7.180682e-02      -7.180745e-02 
       7.999999e-01       7.180725e-02      -7.180745e-02 
       8.000000e-01       7.180725e-02       7.180661e-02 
       8.000001e-01      -7.180682e-02       7.180661e-02 
       8.000000e-01      -7.180682e-02      -7.180745e-02 
       7.999999e-01       7.180725e-02      -7.180745e-02 
       8.000000e-01       7.180725e-02       7.180661e-02 
       8.000001e-01      -7.180682e-02       7.180661e-02 
       1.000000e+00      -7.180670e-02      -7.180768e-02 
       9.999999e-01       7.180737e-02      -7.180768e-02 
       1.000000e+00       7.180737e-02       7.180638e-02 
       1.000000e+00      -7.180670e-02       7.180638e-02 
       1.000000e+00      -7.180670e-02      -7.180768e-02 
       9.999999e-01       7.180737e-02      -7.180768e-02 
       1.000000e+00       7.180737e-02       7.180638e-02 
       1.000000e+00      -7.180670e-02       7.180638e-02 
       1.200000e+00      -7.180655e-02      -7.180796e-02 
       1.200000e+00       7.180752e-02      -7.180796e-02 
       1.200000e+00       7.180752e-02       7.180610e-02 
       1.200000e+00      -7.180655e-02       7.180610e-02 
       1.200000e+00      -7.180655e-02      -7.180796e-02 
       1.200000e+00       7.180752e-02      -7.180796e-02 
       1.200000e+00       7.180752e-02       7.180610e-02 
       1.200000e+00      -7.180655e-02       7.180610e-02 
       1.400000e+00      -7.180638e-02      -7.180829e-02 
       1.400000e+00       7.180769e-02      -7.180829e-02 
       1.400000e+00       7.180769e-02       7.180577e-02 
       1.400000e+00      -7.180638e-02       7.180577e-02 
       1.400000e+00      -7.180638e-02      -7.180829e-02 
       1.400000e+00       7.180769e-02      -7.180829e-02 
       1.400000e+00       7.180769e-02       7.180577e-02 
       1.400000e+00      -7.180638e-02       7.180577e-02 
       1.600000e+00      -7.180619e-02      -7.180867e-02 
       1.600000e+00       7.180788e-02      -7.180867e-02 
       1.600000e+00       7.180788e-02       7.180540e-02 
       1.600000e+00      -7.180619e-02       7.180540e-02 
       1.600000e+00      -7.180619e-02      -7.180867e-02 
       1.600000e+00       7.180788e-02      -7.180867e-02 
       1.600000e+00       7.180788e-02       7.180540e-02 
       1.600000e+00      -7.180619e-02       7.180540e-02 
       1.800000e+00      -7.180597e-02      -7.180909e-02 
       1.800000e+00       7.180810e-02      -7.180909e-02 
       1.800000e+00       7.180810e-02       7.180498e-02 
       1.800000e+00      -7.180597e-02       7.180498e-02 
       1.800000e+00      -7.180597e-02      -7.180909e-02 
       1.800000e+00       7.180810e-02      -7.180909e-02 
       1.800000e+00       7.180810e-02       7.180498e-02 
       1.800000e+00      -7.180597e-02       7.180498e-02 
       2.000000e+00      -7.180573e-02      -7.180955e-02 
       2.000000e+00       7.180834e-02      -7.180955e-02 
       2.000000e+00       7.180834e-02       7.180451e-02 
       2.000000e+00      -7.180573e-02       7.180451e-02 
       2.000000e+00      -7.180573e-02      -7.180955e-02 
       2.000000e+00       7.180834e-02      -7.180955e-02 
       2.000000e+00       7.180834e-02       7.180451e-02 
       2.000000e+00      -7.180573e-02       7.180451e-02 
       2.200000e+00      -7.180546e-02      -7.181006e-02 
       2.200000e+00       7.180860e-02      -7.181006e-02 
       2.200000e+00       7.180860e-02       7.180400e-02 
       2.200000e+00      -7.180546e-02       7.180401e-02 
       2.200000e+00      -7.180546e-02      -7.181006e-02 
       2.200000e+00       7.180860e-02      -7.181006e-02 
       2.200000e+00       7.180860e-02       7.180400e-02 
       2.200000e+00      -7.180546e-02       7.180401e-02 
       2.400000e+00      -7.180518e-02      -7.181061e-02 
       2.400000e+00       7.180889e-02      -7.181061e-02 
       2.400000e+00       7.180889e-02       7.180345e-02 
       2.400000e+00      -7.180518e-02       7.180345e-02 
       2.400000e+00      -7.180518e-02      -7.181061e-02 
       2.400000e+00       7.180889e-02      -7.181061e-02 
       2.400000e+00       7.180889e-02       7.180345e-02 
       2.400000e+00      -7.180518e-02       7.180345e-02 
       2.600000e+00      -7.180487e-02      -7.181121e-02 
       2.600000e+00       7.180919e-02      -7.181121e-02 
       2.600000e+00       7.180920e-02       7.180286e-02 
       2.600000e+00      -7.180487e-02       7.180286e-02 
       2.600000e+00      -7.180487e-02      -7.181121e-02 
       2.600000e+00       7.180919e-02      -7.181121e-02 
       2.600000e+00       7.180920e-02       7.180286e-02 
       2.600000e+00      -7.180487e-02       7.180286e-02 
       2.800000e+00      -7.180454e-02      -7.181184e-02 
       2.800000e+00       7.180952e-02      -7.181184e-02 
       2.800000e+00       7.180953e-02       7.180222e-02 
       2.800000e+00      -7.180454e-02       7.180223e-02 
       2.800000e+00      -7.180454e-02      -7.181184e-02 
       2.800000e+00       7.180952e-02      -7.181184e-02 
       2.800000e+00       7.180953e-02       7.180222e-02 
       2.800000e+00      -7.180454e-02       7.180223e-02 
       3.000000e+00      -7.180419e-02      -7.181251e-02 
       3.000000e+00       7.180987e-02      -7.181252e-02 
       3.000000e+00       7.180987e-02       7.180155e-02 
       3.000000e+00      -7.180419e-02       7.180155e-02 
       3.000000e+00      -7.180419e-02      -7.181251e-02 
       3.000000e+00       7.180987e-02      -7.181252e-02 
       3.000000e+00       7.180987e-02       7.180155e-02 
       3.000000e+00      -7.180419e-02       7.180155e-02 
       3.200000e+00      -7.180382e-02      -7.181323e-02 
       3.200000e+00       7.181024e-02      -7.181323e-02 
       3.200000e+00       7.181024e-02       7.180084e-02 
       3.200000e+00      -7.180382e-02       7.180084e-02 
       3.200000e+00      -7.180382e-02      -7.181323e-02 
       3.200000e+00       7.181024e-02      -7.181323e-02 
       3.200000e+00       7.181024e-02       7.180084e-02 
       3.200000e+00      -7.180382e-02       7.180084e-02 
       3.400000e+00      -7.180344e-02      -7.181398e-02 
       3.400000e+00       7.181063e-02      -7.181398e-02 
       3.400000e+00       7.181063e-02       7.180008e-02 
       3.400000e+00      -7.180343e-02       7.180009e-02 
       3.400000e+00      -7.180344e-02      -7.181398e-02 
       3.400000e+00       7.181063e-02      -7.181398e-02 
       3.400000e+00       7.181063e-02       7.180008e-02 
       3.400000e+00      -7.180343e-02       7.180009e-02 
       3.600000e+00      -7.180303e-02      -7.181477e-02 
       3.600000e+00       7.181104e-02      -7.181477e-02 
       3.600000e+00       7.181104e-02       7.179930e-02 
       3.600000e+00      -7.180302e-02       7.179930e-02 
       3.600000e+00      -7.180303e-02      -7.181477e-02 
       3.600000e+00       7.181104e-02      -7.181477e-02 
       3.600000e+00       7.181104e-02       7.179930e-02 
       3.600000e+00      -7.180302e-02       7.179930e-02 
       3.800000e+00      -7.180260e-02      -7.181559e-02 
       3.800000e+00       7.181147e-02      -7.181560e-02 
       3.800000e+00       7.181147e-02       7.179847e-02 
       3.800000e+00      -7.180260e-02       7.179847e-02 
       3.800000e+00      -7.180260e-02      -7.181559e-02 
       3.800000e+00       7.181147e-02      -7.181560e-02 
       3.800000e+00       7.181147e-02       7.179847e-02 
       3.800000e+00      -7.180260e-02       7.179847e-02 
       4.000000e+00      -7.180215e-02      -7.181645e-02 
       4.000000e+00       7.181191e-02      -7.181646e-02 
       4.000000e+00       7.181192e-02       7.179761e-02 
       4.000000e+00      -7.180215e-02       7.179761e-02 
       4.000000e+00      -7.180215e-02      -7.181645e-02 
       4.000000e+00       7.181191e-02      -7.181646e-02 
       4.000000e+00       7.181192e-02       7.179761e-02 
       4.000000e+00      -7.180215e-02       7.179761e-02 
       4.200000e+00      -7.180169e-02      -7.181735e-02 
[...]
POINT_DATA       800 
VECTORS Displacements float
      -6.81270708e-24       0.00000000e+00       0.00000000e+00 
       3.44034531e-24       0.00000000e+00       0.00000000e+00 
       6.81270708e-24       0.00000000e+00       0.00000000e+00 
      -3.44034531e-24       0.00000000e+00       0.00000000e+00 
      -9.24974941e-09       1.37723794e-08      -2.66382432e-08 
      -2.90742959e-08       1.37723780e-08      -2.67894357e-08 
       9.16951684e-09       1.39235758e-08      -2.67894407e-08 
       2.89940633e-08       1.39235772e-08      -2.66382483e-08 
      -9.24974941e-09       1.37723794e-08      -2.66382432e-08 
      -2.90742959e-08       1.37723780e-08      -2.67894357e-08 
       9.16951684e-09       1.39235758e-08      -2.67894407e-08 
       2.89940633e-08       1.39235772e-08      -2.66382483e-08 
      -1.83258056e-08       5.48892332e-08      -1.06030015e-07 
      -5.75963194e-08       5.48892279e-08      -1.06332395e-07 
       1.81651718e-08       5.51916284e-08      -1.06332415e-07 
       5.74356855e-08       5.51916338e-08      -1.06030035e-07 
      -1.83258056e-08       5.48892332e-08      -1.06030015e-07 
      -5.75963194e-08       5.48892279e-08      -1.06332395e-07 
       1.81651718e-08       5.51916284e-08      -1.06332415e-07 
       5.74356855e-08       5.51916338e-08      -1.06030035e-07 
      -2.72281671e-08       1.22823344e-07      -2.37164086e-07 
      -8.55660687e-08       1.22823332e-07      -2.37617649e-07 
       2.69869663e-08       1.23276940e-07      -2.37617693e-07 
       8.53248681e-08       1.23276952e-07      -2.37164131e-07 
      -2.72281671e-08       1.22823344e-07      -2.37164086e-07 
      -8.55660687e-08       1.22823332e-07      -2.37617649e-07 
       2.69869663e-08       1.23276940e-07      -2.37617693e-07 
       8.53248681e-08       1.23276952e-07      -2.37164131e-07 
      -3.59568317e-08       2.17047494e-07      -4.19029227e-07 
      -1.12983542e-07       2.17047473e-07      -4.19633967e-07 
       3.56349025e-08       2.17652294e-07      -4.19634044e-07 
       1.12661613e-07       2.17652314e-07      -4.19029303e-07 
      -3.59568317e-08       2.17047494e-07      -4.19029227e-07 
      -1.12983542e-07       2.17047473e-07      -4.19633967e-07 
       3.56349025e-08       2.17652294e-07      -4.19634044e-07 
       1.12661613e-07       2.17652314e-07      -4.19029303e-07 
      -4.45117984e-08       3.37034466e-07      -6.50614205e-07 
      -1.39848738e-07       3.37034434e-07      -6.51370120e-07 
       4.41089814e-08       3.37790471e-07      -6.51370238e-07 
       1.39445921e-07       3.37790503e-07      -6.50614323e-07 
      -4.45117984e-08       3.37034466e-07      -6.50614205e-07 
      -1.39848738e-07       3.37034434e-07      -6.51370120e-07 
       4.41089814e-08       3.37790471e-07      -6.51370238e-07 
       1.39445921e-07       3.37790503e-07      -6.50614323e-07 
      -5.28930653e-08       4.82257043e-07      -9.30907793e-07 
      -1.66161656e-07       4.82256998e-07      -9.31814878e-07 
       5.24092048e-08       4.83164255e-07      -9.31815044e-07 
       1.65677795e-07       4.83164300e-07      -9.30907960e-07 
      -5.28930653e-08       4.82257043e-07      -9.30907793e-07 
      -1.66161656e-07       4.82256998e-07      -9.31814878e-07 
       5.24092048e-08       4.83164255e-07      -9.31815044e-07 
       1.65677795e-07       4.83164300e-07      -9.30907960e-07 
      -6.11006312e-08       6.52188006e-07      -1.25889876e-06 
      -1.91922293e-07       6.52187947e-07      -1.25995701e-06 
       6.05355748e-08       6.53246428e-07      -1.25995723e-06 
       1.91357236e-07       6.53246487e-07      -1.25889898e-06 
      -6.11006312e-08       6.52188006e-07      -1.25889876e-06 
      -1.91922293e-07       6.52187947e-07      -1.25995701e-06 
       6.05355748e-08       6.53246428e-07      -1.25995723e-06 
       1.91357236e-07       6.53246487e-07      -1.25889898e-06 
      -6.91344935e-08       8.46300140e-07      -1.63357588e-06 
      -2.17130647e-07       8.46300063e-07      -1.63478529e-06 
       6.84880923e-08       8.47509771e-07      -1.63478557e-06 
       2.16484246e-07       8.47509848e-07      -1.63357616e-06 
      -6.91344935e-08       8.46300140e-07      -1.63357588e-06 
      -2.17130647e-07       8.46300063e-07      -1.63478529e-06 
       6.84880923e-08       8.47509771e-07      -1.63478557e-06 
       2.16484246e-07       8.47509848e-07      -1.63357616e-06 
      -7.69946515e-08       1.06406622e-06      -2.05392791e-06 
      -2.41786718e-07       1.06406613e-06      -2.05528848e-06 
       7.62667594e-08       1.06542707e-06      -2.05528884e-06 
       2.41058825e-07       1.06542716e-06      -2.05392826e-06 
      -7.69946515e-08       1.06406622e-06      -2.05392791e-06 
      -2.41786718e-07       1.06406613e-06      -2.05528848e-06 
       7.62667594e-08       1.06542707e-06      -2.05528884e-06 
       2.41058825e-07       1.06542716e-06      -2.05392826e-06 
      -8.46811035e-08       1.30495904e-06      -2.51894363e-06 
      -2.65890503e-07       1.30495893e-06      -2.52045536e-06 
       8.38715777e-08       1.30647110e-06      -2.52045579e-06 
       2.65080977e-07       1.30647122e-06      -2.51894406e-06 
      -8.46811035e-08       1.30495904e-06      -2.51894363e-06 
      -2.65890503e-07       1.30495893e-06      -2.52045536e-06 
       8.38715772e-08       1.30647110e-06      -2.52045579e-06 
       2.65080977e-07       1.30647122e-06      -2.51894406e-06 
      -9.21893157e-08       1.56846883e-06      -3.02763889e-06 
      -2.89457733e-07       1.56846870e-06      -3.02928580e-06 
       9.13271720e-08       1.57011613e-06      -3.02928631e-06 
       2.88595590e-07       1.57011627e-06      -3.02763940e-06 
      -9.21893157e-08       1.56846883e-06      -3.02763889e-06 
      -2.89457733e-07       1.56846870e-06      -3.02928580e-06 
       9.13271720e-08       1.57011613e-06      -3.02928631e-06 
       2.88595590e-07       1.57011627e-06      -3.02763940e-06 
      -9.95427505e-08       1.85410700e-06      -3.57908564e-06 
      -3.12531620e-07       1.85410685e-06      -3.58086773e-06 
       9.86276163e-08       1.85588955e-06      -3.58086832e-06 
       3.11616486e-07       1.85588971e-06      -3.57908623e-06 
      -9.95427505e-08       1.85410700e-06      -3.57908564e-06 
      -3.12531620e-07       1.85410685e-06      -3.58086773e-06 
       9.86276163e-08       1.85588955e-06      -3.58086832e-06 
       3.11616486e-07       1.85588971e-06      -3.57908623e-06 
      -1.06741405e-07       2.16140206e-06      -4.17238078e-06 
      -3.35112161e-07       2.16140188e-06      -4.17429805e-06 
       1.05772914e-07       2.16331985e-06      -4.17429872e-06 
       3.34143669e-07       2.16332003e-06      -4.17238145e-06 
      -1.06741405e-07       2.16140206e-06      -4.17238078e-06 
      -3.35112161e-07       2.16140188e-06      -4.17429805e-06 
       1.05772914e-07       2.16331985e-06      -4.17429872e-06 
       3.34143669e-07       2.16332003e-06      -4.17238145e-06 
      -1.13785275e-07       2.48988251e-06      -4.80662119e-06 
      -3.57199351e-07       2.48988230e-06      -4.80867364e-06 
       1.12763068e-07       2.49193555e-06      -4.80867441e-06 
       3.56177144e-07       2.49193575e-06      -4.80662196e-06 
      -1.13785275e-07       2.48988251e-06      -4.80662119e-06 
      -3.57199351e-07       2.48988230e-06      -4.80867364e-06 
       1.12763068e-07       2.49193555e-06      -4.80867441e-06 
       3.56177144e-07       2.49193575e-06      -4.80662196e-06 
      -1.20674358e-07       2.83907686e-06      -5.48090378e-06 
      -3.78793187e-07       2.83907663e-06      -5.48309140e-06 
       1.19598083e-07       2.84126514e-06      -5.48309227e-06 
       3.77716913e-07       2.84126537e-06      -5.48090465e-06 
      -1.20674358e-07       2.83907686e-06      -5.48090378e-06 
      -3.78793187e-07       2.83907663e-06      -5.48309140e-06 
       1.19598083e-07       2.84126514e-06      -5.48309227e-06 
       3.77716913e-07       2.84126537e-06      -5.48090465e-06 
      -1.27408647e-07       3.20851361e-06      -6.19432544e-06 
      -3.99893665e-07       3.20851335e-06      -6.19664823e-06 
       1.26277964e-07       3.21083714e-06      -6.19664920e-06 
       3.98762982e-07       3.21083740e-06      -6.19432641e-06 
      -1.27408647e-07       3.20851361e-06      -6.19432544e-06 
      -3.99893665e-07       3.20851335e-06      -6.19664823e-06 
       1.26277964e-07       3.21083714e-06      -6.19664920e-06 
       3.98762982e-07       3.21083740e-06      -6.19432641e-06 
      -1.33988140e-07       3.59772127e-06      -6.94598307e-06 
      -4.20500780e-07       3.59772099e-06      -6.94844103e-06 
       1.32802714e-07       3.60018005e-06      -6.94844209e-06 
       4.19315354e-07       3.60018034e-06      -6.94598413e-06 
      -1.33988140e-07       3.59772127e-06      -6.94598307e-06 
      -4.20500780e-07       3.59772099e-06      -6.94844103e-06 
       1.32802714e-07       3.60018005e-06      -6.94844209e-06 
       4.19315354e-07       3.60018034e-06      -6.94598413e-06 
      -1.40412833e-07       4.00622835e-06      -7.73497355e-06 
      -4.40614528e-07       4.00622804e-06      -7.73756668e-06 
       1.39172336e-07       4.00882238e-06      -7.73756785e-06 
       4.39374032e-07       4.00882269e-06      -7.73497472e-06 
      -1.40412833e-07       4.00622835e-06      -7.73497355e-06 
      -4.40614528e-07       4.00622804e-06      -7.73756668e-06 
       1.39172336e-07       4.00882238e-06      -7.73756785e-06 
       4.39374032e-07       4.00882269e-06      -7.73497472e-06 
      -1.46682721e-07       4.43356335e-06      -8.56039379e-06 
      -4.60234906e-07       4.43356301e-06      -8.56312208e-06 
       1.45386836e-07       4.43629263e-06      -8.56312336e-06 
       4.58939021e-07       4.43629297e-06      -8.56039506e-06 
      -1.46682721e-07       4.43356335e-06      -8.56039379e-06 
      -4.60234906e-07       4.43356301e-06      -8.56312208e-06 
       1.45386836e-07       4.43629263e-06      -8.56312336e-06 
       4.58939021e-07       4.43629297e-06      -8.56039506e-06 
      -1.52797802e-07       4.87925477e-06      -9.42134067e-06 
      -4.79361911e-07       4.87925440e-06      -9.42420413e-06 
       1.51446216e-07       4.88211930e-06      -9.42420552e-06 
       4.78010326e-07       4.88211967e-06      -9.42134206e-06 
      -1.52797802e-07       4.87925477e-06      -9.42134067e-06 
      -4.79361911e-07       4.87925440e-06      -9.42420413e-06 
       1.51446216e-07       4.88211930e-06      -9.42420552e-06 
       4.78010325e-07       4.88211967e-06      -9.42134206e-06 
      -1.58757287e-07       5.34284844e-06      -1.03169374e-05 
      -4.98014773e-07       5.34284804e-06      -1.03199200e-05 
       1.57370131e-07       5.34583227e-06      -1.03199215e-05 
       4.96627617e-07       5.34583267e-06      -1.03169389e-05 
      -1.58757287e-07       5.34284844e-06      -1.03169374e-05 
      -4.98014773e-07       5.34284804e-06      -1.03199200e-05 
       1.57370131e-07       5.34583227e-06      -1.03199215e-05 
       4.96627617e-07       5.34583267e-06      -1.03169389e-05 
      -1.64580055e-07       5.82391106e-06      -1.12463614e-05 
      -5.16232045e-07       5.82391063e-06      -1.12494633e-05 
       1.63156884e-07       5.82701419e-06      -1.12494649e-05 
       5.14808872e-07       5.82701462e-06      -1.12463630e-05 
      -1.64580055e-07       5.82391106e-06      -1.12463614e-05 
      -5.16232045e-07       5.82391063e-06      -1.12494633e-05 
       1.63156884e-07       5.82701419e-06      -1.12494649e-05 
       5.14808872e-07       5.82701462e-06      -1.12463630e-05 
      -1.70266102e-07       6.32202642e-06      -1.22088151e-05 
      -5.34013716e-07       6.32202596e-06      -1.22120362e-05 
       1.68806481e-07       6.32524885e-06      -1.22120379e-05 
       5.32554095e-07       6.32524931e-06      -1.22088168e-05 
      -1.70266102e-07       6.32202642e-06      -1.22088151e-05 
      -5.34013716e-07       6.32202596e-06      -1.22120362e-05 
       1.68806481e-07       6.32524885e-06      -1.22120379e-05 
       5.32554095e-07       6.32524931e-06      -1.22088168e-05 
      -1.75815421e-07       6.83677829e-06      -1.32035009e-05 
      -5.51359784e-07       6.83677780e-06      -1.32068412e-05 
       1.74318926e-07       6.84012002e-06      -1.32068430e-05 
       5.49863290e-07       6.84012052e-06      -1.32035027e-05 
      -1.75815421e-07       6.83677829e-06      -1.32035009e-05 
      -5.51359784e-07       6.83677780e-06      -1.32068412e-05 
       1.74318926e-07       6.84012002e-06      -1.32068430e-05 
       5.49863290e-07       6.84012052e-06      -1.32035027e-05 
      -1.81228008e-07       7.36775045e-06      -1.42296211e-05 
      -5.68270245e-07       7.36774993e-06      -1.42330806e-05 
       1.79694225e-07       7.37121149e-06      -1.42330826e-05 
       5.66736462e-07       7.37121201e-06      -1.42296230e-05 
      -1.81228008e-07       7.36775045e-06      -1.42296211e-05 
      -5.68270245e-07       7.36774993e-06      -1.42330806e-05 
       1.79694225e-07       7.37121149e-06      -1.42330826e-05 
       5.66736462e-07       7.37121201e-06      -1.42296230e-05 
      -1.86503857e-07       7.91452668e-06      -1.52863781e-05 
      -5.84745092e-07       7.91452613e-06      -1.52899569e-05 
       1.84932383e-07       7.91810702e-06      -1.52899589e-05 
       5.83173619e-07       7.91810758e-06      -1.52863802e-05 
      -1.86503857e-07       7.91452668e-06      -1.52863781e-05 
      -5.84745092e-07       7.91452613e-06      -1.52899569e-05 
       1.84932383e-07       7.91810702e-06      -1.52899589e-05 
       5.83173619e-07       7.91810758e-06      -1.52863802e-05 
      -1.91642964e-07       8.47669077e-06      -1.63729743e-05 
      -6.00784320e-07       8.47669018e-06      -1.63766723e-05 
       1.90033406e-07       8.48039041e-06      -1.63766745e-05 
       5.99174762e-07       8.48039099e-06      -1.63729765e-05 
      -1.91642964e-07       8.47669077e-06      -1.63729743e-05 
      -6.00784320e-07       8.47669018e-06      -1.63766723e-05 
       1.90033406e-07       8.48039041e-06      -1.63766745e-05 
       5.99174762e-07       8.48039099e-06      -1.63729765e-05 
      -1.96645320e-07       9.05382648e-06      -1.74886121e-05 
      -6.16387922e-07       9.05382586e-06      -1.74924293e-05 
       1.94997300e-07       9.05764542e-06      -1.74924316e-05 
       6.14739902e-07       9.05764603e-06      -1.74886144e-05 
      -1.96645320e-07       9.05382648e-06      -1.74886121e-05 
      -6.16387922e-07       9.05382586e-06      -1.74924293e-05 
       1.94997300e-07       9.05764542e-06      -1.74924316e-05 
       6.14739902e-07       9.05764603e-06      -1.74886144e-05 
      -2.01510925e-07       9.64551759e-06      -1.86324937e-05 
      -6.31555896e-07       9.64551695e-06      -1.86364301e-05 
       1.99824068e-07       9.64945584e-06      -1.86364326e-05 
       6.29869038e-07       9.64945648e-06      -1.86324962e-05 
      -2.01510925e-07       9.64551759e-06      -1.86324937e-05 
      -6.31555896e-07       9.64551695e-06      -1.86364301e-05 
       1.99824068e-07       9.64945584e-06      -1.86364326e-05 
       6.29869038e-07       9.64945648e-06      -1.86324962e-05 
      -2.06239771e-07       1.02513479e-05      -1.98038217e-05 
      -6.46288234e-07       1.02513472e-05      -1.98078773e-05 
       2.04513714e-07       1.02554054e-05      -1.98078798e-05 
       6.44562179e-07       1.02554061e-05      -1.98038242e-05 
      -2.06239771e-07       1.02513479e-05      -1.98038217e-05 
      -6.46288234e-07       1.02513472e-05      -1.98078773e-05 
       2.04513715e-07       1.02554054e-05      -1.98078798e-05 
       6.44562179e-07       1.02554061e-05      -1.98038242e-05 
      -2.10834050e-07       1.08709184e-05      -2.10018240e-05 
      -6.60606977e-07       1.08709177e-05      -2.10059829e-05 
       2.09082047e-07       1.08750793e-05      -2.10059855e-05 
       6.58854974e-07       1.08750800e-05      -2.10018266e-05 
      -2.10834050e-07       1.08709184e-05      -2.10018240e-05 
      -6.60606977e-07       1.08709177e-05      -2.10059829e-05 
       2.09082047e-07       1.08750793e-05      -2.10059855e-05 
       6.58854974e-07       1.08750800e-05      -2.10018266e-05 
      -2.15309150e-07       1.15038507e-05      -2.22257819e-05 
      -6.74547144e-07       1.15038500e-05      -2.22300441e-05 
       2.13530771e-07       1.15081150e-05      -2.22300468e-05 
       6.72768765e-07       1.15081157e-05      -2.22257847e-05 
      -2.15309150e-07       1.15038507e-05      -2.22257819e-05 
      -6.74547144e-07       1.15038500e-05      -2.22300441e-05 
       2.13530771e-07       1.15081150e-05      -2.22300468e-05 
       6.72768765e-07       1.15081157e-05      -2.22257847e-05 
      -2.19665067e-07       1.21497837e-05      -2.34750017e-05 
      -6.88108730e-07       1.21497829e-05      -2.34793672e-05 
       2.17859895e-07       1.21541513e-05      -2.34793700e-05 
       6.86303559e-07       1.21541521e-05      -2.34750046e-05 
      -2.19665067e-07       1.21497837e-05      -2.34750017e-05 
      -6.88108730e-07       1.21497829e-05      -2.34793672e-05 
       2.17859895e-07       1.21541513e-05      -2.34793700e-05 
       6.86303559e-07       1.21541521e-05      -2.34750046e-05 
      -2.23901795e-07       1.28083561e-05      -2.47487896e-05 
      -7.01291730e-07       1.28083553e-05      -2.47532584e-05 
       2.22069422e-07       1.28128271e-05      -2.47532613e-05 
       6.99459358e-07       1.28128279e-05      -2.47487926e-05 
      -2.23901795e-07       1.28083561e-05      -2.47487896e-05 
      -7.01291730e-07       1.28083553e-05      -2.47532584e-05 
       2.22069422e-07       1.28128271e-05      -2.47532613e-05 
       6.99459358e-07       1.28128279e-05      -2.47487926e-05 
      -2.28019329e-07       1.34792066e-05      -2.60464518e-05 
      -7.14096138e-07       1.34792057e-05      -2.60510239e-05 
       2.26159361e-07       1.34837810e-05      -2.60510269e-05 
       7.12236170e-07       1.34837818e-05      -2.60464549e-05 
      -2.28019329e-07       1.34792066e-05      -2.60464518e-05 
      -7.14096138e-07       1.34792057e-05      -2.60510239e-05 
       2.26159361e-07       1.34837810e-05      -2.60510269e-05 
       7.12236170e-07       1.34837818e-05      -2.60464549e-05 
      -2.32017661e-07       1.41619740e-05      -2.73672946e-05 
      -7.26521947e-07       1.41619731e-05      -2.73719699e-05 
       2.30129714e-07       1.41666517e-05      -2.73719731e-05 
       7.24634001e-07       1.41666526e-05      -2.73672978e-05 
      -2.32017661e-07       1.41619740e-05      -2.73672946e-05 
      -7.26521947e-07       1.41619731e-05      -2.73719699e-05 
       2.30129714e-07       1.41666517e-05      -2.73719731e-05 
       7.24634001e-07       1.41666526e-05      -2.73672978e-05 
      -2.35896787e-07       1.48562970e-05      -2.87106241e-05 
      -7.38569153e-07       1.48562962e-05      -2.87154027e-05 
       2.33980490e-07       1.48610782e-05      -2.87154060e-05 
       7.36652856e-07       1.48610791e-05      -2.87106274e-05 
      -2.35896787e-07       1.48562970e-05      -2.87106241e-05 
      -7.38569153e-07       1.48562962e-05      -2.87154027e-05 
       2.33980490e-07       1.48610782e-05      -2.87154060e-05 
       7.36652856e-07       1.48610791e-05      -2.87106274e-05 
      -2.39656701e-07       1.55618145e-05      -3.00757466e-05 
      -7.50237748e-07       1.55618136e-05      -3.00806285e-05 
       2.37711694e-07       1.55666990e-05      -3.00806319e-05 
       7.48292742e-07       1.55666999e-05      -3.00757500e-05 
      -2.39656701e-07       1.55618145e-05      -3.00757466e-05 
      -7.50237748e-07       1.55618136e-05      -3.00806285e-05 