# vtk DataFile Version 2.0
./output/onsasExample_BladeCantileverBeamPitch_windVel3DDynamic 3D/onsasExample_BladeCantileverBeamPitch_windVel3DDynamic 3D_0179.vtk
ASCII
DATASET UNSTRUCTURED_GRID

POINTS 800 float
       4.782204e-24      -7.180703e-02      -7.180703e-02 
       3.684334e-23       7.180703e-02      -7.180703e-02 
      -4.782204e-24       7.180703e-02       7.180703e-02 
      -3.684334e-23      -7.180703e-02       7.180703e-02 
       2.000000e-01      -7.180702e-02      -7.180706e-02 
       2.000000e-01       7.180705e-02      -7.180706e-02 
       2.000000e-01       7.180705e-02       7.180701e-02 
       2.000000e-01      -7.180702e-02       7.180701e-02 
       2.000000e-01      -7.180702e-02      -7.180706e-02 
       2.000000e-01       7.180705e-02      -7.180706e-02 
       2.000000e-01       7.180705e-02       7.180701e-02 
       2.000000e-01      -7.180702e-02       7.180701e-02 
       4.000000e-01      -7.180698e-02      -7.180713e-02 
       3.999999e-01       7.180709e-02      -7.180713e-02 
       4.000000e-01       7.180709e-02       7.180694e-02 
       4.000001e-01      -7.180698e-02       7.180694e-02 
       4.000000e-01      -7.180698e-02      -7.180713e-02 
       3.999999e-01       7.180709e-02      -7.180713e-02 
       4.000000e-01       7.180709e-02       7.180694e-02 
       4.000001e-01      -7.180698e-02       7.180694e-02 
       6.000000e-01      -7.180691e-02      -7.180725e-02 
       5.999999e-01       7.180716e-02      -7.180725e-02 
       6.000000e-01       7.180716e-02       7.180682e-02 
       6.000001e-01      -7.180691e-02       7.180682e-02 
       6.000000e-01      -7.180691e-02      -7.180725e-02 
       5.999999e-01       7.180716e-02      -7.180725e-02 
       6.000000e-01       7.180716e-02       7.180682e-02 
       6.000001e-01      -7.180691e-02       7.180682e-02 
       8.000000e-01      -7.180682e-02      -7.180741e-02 
       7.999999e-01       7.180725e-02      -7.180741e-02 
       8.000000e-01       7.180725e-02       7.180666e-02 
       8.000001e-01      -7.180682e-02       7.180666e-02 
       8.000000e-01      -7.180682e-02      -7.180741e-02 
       7.999999e-01       7.180725e-02      -7.180741e-02 
       8.000000e-01       7.180725e-02       7.180666e-02 
       8.000001e-01      -7.180682e-02       7.180666e-02 
       1.000000e+00      -7.180670e-02      -7.180762e-02 
       9.999999e-01       7.180737e-02      -7.180762e-02 
       1.000000e+00       7.180737e-02       7.180645e-02 
       1.000000e+00      -7.180670e-02       7.180645e-02 
       1.000000e+00      -7.180670e-02      -7.180762e-02 
       9.999999e-01       7.180737e-02      -7.180762e-02 
       1.000000e+00       7.180737e-02       7.180645e-02 
       1.000000e+00      -7.180670e-02       7.180645e-02 
       1.200000e+00      -7.180655e-02      -7.180787e-02 
       1.200000e+00       7.180752e-02      -7.180787e-02 
       1.200000e+00       7.180752e-02       7.180620e-02 
       1.200000e+00      -7.180655e-02       7.180620e-02 
       1.200000e+00      -7.180655e-02      -7.180787e-02 
       1.200000e+00       7.180752e-02      -7.180787e-02 
       1.200000e+00       7.180752e-02       7.180620e-02 
       1.200000e+00      -7.180655e-02       7.180620e-02 
       1.400000e+00      -7.180638e-02      -7.180816e-02 
       1.400000e+00       7.180769e-02      -7.180816e-02 
       1.400000e+00       7.180769e-02       7.180590e-02 
       1.400000e+00      -7.180638e-02       7.180590e-02 
       1.400000e+00      -7.180638e-02      -7.180816e-02 
       1.400000e+00       7.180769e-02      -7.180816e-02 
       1.400000e+00       7.180769e-02       7.180590e-02 
       1.400000e+00      -7.180638e-02       7.180590e-02 
       1.600000e+00      -7.180619e-02      -7.180850e-02 
       1.600000e+00       7.180788e-02      -7.180850e-02 
       1.600000e+00       7.180788e-02       7.180557e-02 
       1.600000e+00      -7.180619e-02       7.180557e-02 
       1.600000e+00      -7.180619e-02      -7.180850e-02 
       1.600000e+00       7.180788e-02      -7.180850e-02 
       1.600000e+00       7.180788e-02       7.180557e-02 
       1.600000e+00      -7.180619e-02       7.180557e-02 
       1.800000e+00      -7.180597e-02      -7.180888e-02 
       1.800000e+00       7.180810e-02      -7.180888e-02 
       1.800000e+00       7.180810e-02       7.180519e-02 
       1.800000e+00      -7.180597e-02       7.180519e-02 
       1.800000e+00      -7.180597e-02      -7.180888e-02 
       1.800000e+00       7.180810e-02      -7.180888e-02 
       1.800000e+00       7.180810e-02       7.180519e-02 
       1.800000e+00      -7.180597e-02       7.180519e-02 
       2.000000e+00      -7.180573e-02      -7.180929e-02 
       2.000000e+00       7.180834e-02      -7.180929e-02 
       2.000000e+00       7.180834e-02       7.180477e-02 
       2.000000e+00      -7.180573e-02       7.180477e-02 
       2.000000e+00      -7.180573e-02      -7.180929e-02 
       2.000000e+00       7.180834e-02      -7.180929e-02 
       2.000000e+00       7.180834e-02       7.180477e-02 
       2.000000e+00      -7.180573e-02       7.180477e-02 
       2.200000e+00      -7.180546e-02      -7.180975e-02 
       2.200000e+00       7.180860e-02      -7.180975e-02 
       2.200000e+00       7.180860e-02       7.180432e-02 
       2.200000e+00      -7.180546e-02       7.180432e-02 
       2.200000e+00      -7.180546e-02      -7.180975e-02 
       2.200000e+00       7.180860e-02      -7.180975e-02 
       2.200000e+00       7.180860e-02       7.180432e-02 
       2.200000e+00      -7.180546e-02       7.180432e-02 
       2.400000e+00      -7.180518e-02      -7.181024e-02 
       2.400000e+00       7.180889e-02      -7.181024e-02 
       2.400000e+00       7.180889e-02       7.180383e-02 
       2.400000e+00      -7.180518e-02       7.180383e-02 
       2.400000e+00      -7.180518e-02      -7.181024e-02 
       2.400000e+00       7.180889e-02      -7.181024e-02 
       2.400000e+00       7.180889e-02       7.180383e-02 
       2.400000e+00      -7.180518e-02       7.180383e-02 
       2.600000e+00      -7.180487e-02      -7.181077e-02 
       2.600000e+00       7.180920e-02      -7.181077e-02 
       2.600000e+00       7.180920e-02       7.180330e-02 
       2.600000e+00      -7.180487e-02       7.180330e-02 
       2.600000e+00      -7.180487e-02      -7.181077e-02 
       2.600000e+00       7.180920e-02      -7.181077e-02 
       2.600000e+00       7.180920e-02       7.180330e-02 
       2.600000e+00      -7.180487e-02       7.180330e-02 
       2.800000e+00      -7.180454e-02      -7.181133e-02 
       2.800000e+00       7.180952e-02      -7.181134e-02 
       2.800000e+00       7.180953e-02       7.180273e-02 
       2.800000e+00      -7.180454e-02       7.180273e-02 
       2.800000e+00      -7.180454e-02      -7.181133e-02 
       2.800000e+00       7.180952e-02      -7.181134e-02 
       2.800000e+00       7.180953e-02       7.180273e-02 
       2.800000e+00      -7.180454e-02       7.180273e-02 
       3.000000e+00      -7.180419e-02      -7.181194e-02 
       3.000000e+00       7.180987e-02      -7.181194e-02 
       3.000000e+00       7.180988e-02       7.180213e-02 
       3.000000e+00      -7.180419e-02       7.180213e-02 
       3.000000e+00      -7.180419e-02      -7.181194e-02 
       3.000000e+00       7.180987e-02      -7.181194e-02 
       3.000000e+00       7.180988e-02       7.180213e-02 
       3.000000e+00      -7.180419e-02       7.180213e-02 
       3.200000e+00      -7.180382e-02      -7.181257e-02 
       3.200000e+00       7.181024e-02      -7.181257e-02 
       3.200000e+00       7.181025e-02       7.180149e-02 
       3.200000e+00      -7.180382e-02       7.180149e-02 
       3.200000e+00      -7.180382e-02      -7.181257e-02 
       3.200000e+00       7.181024e-02      -7.181257e-02 
       3.200000e+00       7.181025e-02       7.180149e-02 
       3.200000e+00      -7.180382e-02       7.180149e-02 
       3.400000e+00      -7.180343e-02      -7.181324e-02 
       3.400000e+00       7.181063e-02      -7.181324e-02 
       3.400000e+00       7.181063e-02       7.180082e-02 
       3.400000e+00      -7.180343e-02       7.180083e-02 
       3.400000e+00      -7.180343e-02      -7.181324e-02 
       3.400000e+00       7.181063e-02      -7.181324e-02 
       3.400000e+00       7.181063e-02       7.180082e-02 
       3.400000e+00      -7.180343e-02       7.180083e-02 
       3.600000e+00      -7.180303e-02      -7.181394e-02 
       3.600000e+00       7.181104e-02      -7.181395e-02 
       3.600000e+00       7.181104e-02       7.180012e-02 
       3.600000e+00      -7.180302e-02       7.180012e-02 
       3.600000e+00      -7.180303e-02      -7.181394e-02 
       3.600000e+00       7.181104e-02      -7.181395e-02 
       3.600000e+00       7.181104e-02       7.180012e-02 
       3.600000e+00      -7.180302e-02       7.180012e-02 
       3.800000e+00      -7.180260e-02      -7.181468e-02 
       3.800000e+00       7.181147e-02      -7.181468e-02 
       3.800000e+00       7.181147e-02       7.179939e-02 
       3.800000e+00      -7.180260e-02       7.179939e-02 
       3.800000e+00      -7.180260e-02      -7.181468e-02 
       3.800000e+00       7.181147e-02      -7.181468e-02 
       3.800000e+00       7.181147e-02       7.179939e-02 
       3.800000e+00      -7.180260e-02       7.179939e-02 
       4.000000e+00      -7.180215e-02      -7.181544e-02 
       4.000000e+00       7.181191e-02      -7.181544e-02 
       4.000000e+00       7.181192e-02       7.179862e-02 
       4.000000e+00      -7.180215e-02       7.179863e-02 
       4.000000e+00      -7.180215e-02      -7.181544e-02 
       4.000000e+00       7.181191e-02      -7.181544e-02 
       4.000000e+00       7.181192e-02       7.179862e-02 
       4.000000e+00      -7.180215e-02       7.179863e-02 
       4.200000e+00      -7.180169e-02      -7.181624e-02 
[...]
POINT_DATA       800 
VECTORS Displacements float
       4.78220394e-24      -2.77555756e-17       0.00000000e+00 
       3.68433447e-23       1.38777878e-17       0.00000000e+00 
      -4.78220394e-24       2.77555756e-17       0.00000000e+00 
      -3.68433447e-23      -1.38777878e-17       0.00000000e+00 
      -7.32857275e-09       1.37810572e-08      -2.39681606e-08 
      -2.71653441e-08       1.37810559e-08      -2.41192418e-08 
       7.24893864e-09       1.39321418e-08      -2.41192459e-08 
       2.70857100e-08       1.39321431e-08      -2.39681647e-08 
      -7.32857275e-09       1.37810572e-08      -2.39681606e-08 
      -2.71653441e-08       1.37810559e-08      -2.41192418e-08 
       7.24893864e-09       1.39321418e-08      -2.41192459e-08 
       2.70857100e-08       1.39321431e-08      -2.39681647e-08 
      -1.44994062e-08       5.49229559e-08      -9.53783440e-08 
      -5.37934249e-08       5.49229506e-08      -9.56805018e-08 
       1.43399952e-08       5.52251270e-08      -9.56805179e-08 
       5.36340139e-08       5.52251323e-08      -9.53783602e-08 
      -1.44994062e-08       5.49229559e-08      -9.53783440e-08 
      -5.37934249e-08       5.49229506e-08      -9.56805018e-08 
       1.43399952e-08       5.52251270e-08      -9.56805179e-08 
       5.36340139e-08       5.52251323e-08      -9.53783602e-08 
      -2.15124990e-08       1.22897163e-07      -2.13262476e-07 
      -7.98842411e-08       1.22897151e-07      -2.13715706e-07 
       2.12731709e-08       1.23350422e-07      -2.13715742e-07 
       7.96449129e-08       1.23350434e-07      -2.13262512e-07 
      -2.15124990e-08       1.22897163e-07      -2.13262476e-07 
      -7.98842411e-08       1.22897151e-07      -2.13715706e-07 
       2.12731709e-08       1.23350422e-07      -2.13715742e-07 
       7.96449129e-08       1.23350434e-07      -2.13262512e-07 
      -2.83678497e-08       2.17175145e-07      -3.76652482e-07 
      -1.05437791e-07       2.17175124e-07      -3.77256781e-07 
       2.80484674e-08       2.17779494e-07      -3.77256843e-07 
       1.05118409e-07       2.17779515e-07      -3.76652545e-07 
      -2.83678497e-08       2.17175145e-07      -3.76652482e-07 
      -1.05437791e-07       2.17175124e-07      -3.77256781e-07 
       2.80484674e-08       2.17779494e-07      -3.77256843e-07 
       1.05118409e-07       2.17779515e-07      -3.76652545e-07 
      -3.50654571e-08       3.37228368e-07      -5.84580289e-07 
      -1.30454073e-07       3.37228337e-07      -5.85335652e-07 
       3.46658862e-08       3.37983809e-07      -5.85335747e-07 
       1.30054503e-07       3.37983841e-07      -5.84580384e-07 
      -3.50654571e-08       3.37228368e-07      -5.84580289e-07 
      -1.30454073e-07       3.37228337e-07      -5.85335652e-07 
       3.46658862e-08       3.37983809e-07      -5.85335747e-07 
       1.30054503e-07       3.37983841e-07      -5.84580384e-07 
      -4.16053192e-08       4.82528301e-07      -8.36077822e-07 
      -1.54933087e-07       4.82528256e-07      -8.36984246e-07 
       4.11254284e-08       4.83434834e-07      -8.36984380e-07 
       1.54453196e-07       4.83434879e-07      -8.36077956e-07 
      -4.16053192e-08       4.82528301e-07      -8.36077822e-07 
      -1.54933087e-07       4.82528256e-07      -8.36984246e-07 
       4.11254284e-08       4.83434834e-07      -8.36984380e-07 
       1.54453196e-07       4.83434879e-07      -8.36077956e-07 
      -4.79874347e-08       6.52546408e-07      -1.13017701e-06 
      -1.78874830e-07       6.52546348e-07      -1.13123449e-06 
       4.74270958e-08       6.53604036e-07      -1.13123467e-06 
       1.78314491e-07       6.53604096e-07      -1.13017719e-06 
      -4.79874347e-08       6.52546408e-07      -1.13017701e-06 
      -1.78874830e-07       6.52546348e-07      -1.13123449e-06 
       4.74270958e-08       6.53604036e-07      -1.13123467e-06 
       1.78314491e-07       6.53604096e-07      -1.13017719e-06 
      -5.42118028e-08       8.46754158e-07      -1.46590977e-06 
      -2.02279301e-07       8.46754081e-07      -1.46711831e-06 
       5.35708897e-08       8.47962881e-07      -1.46711853e-06 
       2.01638388e-07       8.47962957e-07      -1.46591000e-06 
      -5.42118028e-08       8.46754158e-07      -1.46590977e-06 
      -2.02279301e-07       8.46754081e-07      -1.46711831e-06 
       5.35708897e-08       8.47962881e-07      -1.46711853e-06 
       2.01638388e-07       8.47962957e-07      -1.46591000e-06 
      -6.02784214e-08       1.06462302e-06      -1.84230804e-06 
      -2.25146498e-07       1.06462292e-06      -1.84366762e-06 
       5.95568110e-08       1.06598284e-06      -1.84366791e-06 
       2.24424888e-07       1.06598293e-06      -1.84230832e-06 
      -6.02784214e-08       1.06462302e-06      -1.84230804e-06 
      -2.25146498e-07       1.06462292e-06      -1.84366762e-06 
       5.95568110e-08       1.06598284e-06      -1.84366791e-06 
       2.24424888e-07       1.06598293e-06      -1.84230832e-06 
      -6.61872892e-08       1.30562445e-06      -2.25840373e-06 
      -2.47476421e-07       1.30562434e-06      -2.25991437e-06 
       6.53848624e-08       1.30713537e-06      -2.25991471e-06 
       2.46673994e-07       1.30713548e-06      -2.25840407e-06 
      -6.61872892e-08       1.30562445e-06      -2.25840373e-06 
      -2.47476421e-07       1.30562434e-06      -2.25991437e-06 
       6.53848624e-08       1.30713537e-06      -2.25991471e-06 
       2.46673994e-07       1.30713548e-06      -2.25840407e-06 
      -7.19336537e-08       1.56924677e-06      -2.71325424e-06 
      -2.69283565e-07       1.56924664e-06      -2.71489993e-06 
       7.10787638e-08       1.57089279e-06      -2.71490033e-06 
       2.68428675e-07       1.57089293e-06      -2.71325465e-06 
      -7.19336537e-08       1.56924677e-06      -2.71325424e-06 
      -2.69283565e-07       1.56924664e-06      -2.71489993e-06 
       7.10787638e-08       1.57089279e-06      -2.71490033e-06 
       2.68428675e-07       1.57089293e-06      -2.71325465e-06 
      -7.75421594e-08       1.85499873e-06      -3.20597414e-06 
      -2.90612558e-07       1.85499857e-06      -3.20775488e-06 
       7.66344956e-08       1.85677985e-06      -3.20775535e-06 
       2.89704894e-07       1.85678001e-06      -3.20597461e-06 
      -7.75421594e-08       1.85499873e-06      -3.20597414e-06 
      -2.90612558e-07       1.85499857e-06      -3.20775488e-06 
       7.66344956e-08       1.85677985e-06      -3.20775535e-06 
       2.89704894e-07       1.85678001e-06      -3.20597461e-06 
      -8.30128037e-08       2.16240642e-06      -3.73570513e-06 
      -3.11463397e-07       2.16240624e-06      -3.73762091e-06 
       8.20520603e-08       2.16432265e-06      -3.73762145e-06 
       3.10502654e-07       2.16432283e-06      -3.73570567e-06 
      -8.30128037e-08       2.16240642e-06      -3.73570513e-06 
      -3.11463397e-07       2.16240624e-06      -3.73762091e-06 
       8.20520603e-08       2.16432265e-06      -3.73762145e-06 
       3.10502654e-07       2.16432283e-06      -3.73570567e-06 
      -8.83455828e-08       2.49099595e-06      -4.30158891e-06 
      -3.31836080e-07       2.49099574e-06      -4.30363974e-06 
       8.73314621e-08       2.49304728e-06      -4.30364035e-06 
       3.30821959e-07       2.49304748e-06      -4.30158952e-06 
      -8.83455828e-08       2.49099595e-06      -4.30158891e-06 
      -3.31836080e-07       2.49099574e-06      -4.30363974e-06 
       8.73314621e-08       2.49304728e-06      -4.30364035e-06 
       3.30821959e-07       2.49304748e-06      -4.30158952e-06 
      -9.35404940e-08       2.84029341e-06      -4.90276718e-06 
      -3.51730602e-07       2.84029318e-06      -4.90495304e-06 
       9.24727042e-08       2.84247985e-06      -4.90495373e-06 
       3.50662812e-07       2.84248008e-06      -4.90276786e-06 
      -9.35404940e-08       2.84029341e-06      -4.90276718e-06 
      -3.51730602e-07       2.84029318e-06      -4.90495304e-06 
       9.24727042e-08       2.84247985e-06      -4.90495373e-06 
       3.50662812e-07       2.84248008e-06      -4.90276786e-06 
      -9.85975328e-08       3.20982492e-06      -5.53838163e-06 
      -3.71146960e-07       3.20982466e-06      -5.54070254e-06 
       9.74757897e-08       3.21214646e-06      -5.54070330e-06 
       3.70025217e-07       3.21214672e-06      -5.53838239e-06 
      -9.85975328e-08       3.20982492e-06      -5.53838163e-06 
      -3.71146960e-07       3.20982466e-06      -5.54070254e-06 
       9.74757897e-08       3.21214646e-06      -5.54070330e-06 
       3.70025217e-07       3.21214672e-06      -5.53838239e-06 
      -1.03516696e-07       3.59911657e-06      -6.20757397e-06 
      -3.90085150e-07       3.59911628e-06      -6.21002991e-06 
       1.02340723e-07       3.60157321e-06      -6.21003076e-06 
       3.88909178e-07       3.60157350e-06      -6.20757481e-06 
      -1.03516696e-07       3.59911657e-06      -6.20757397e-06 
      -3.90085150e-07       3.59911628e-06      -6.21002991e-06 
       1.02340723e-07       3.60157321e-06      -6.21003076e-06 
       3.88909178e-07       3.60157350e-06      -6.20757481e-06 
      -1.08297981e-07       4.00769446e-06      -6.90948589e-06 
      -4.08545171e-07       4.00769415e-06      -6.91207688e-06 
       1.07067507e-07       4.01028621e-06      -6.91207780e-06 
       4.07314697e-07       4.01028652e-06      -6.90948682e-06 
      -1.08297981e-07       4.00769446e-06      -6.90948589e-06 
      -4.08545171e-07       4.00769415e-06      -6.91207688e-06 
       1.07067507e-07       4.01028621e-06      -6.91207780e-06 
       4.07314697e-07       4.01028652e-06      -6.90948682e-06 
      -1.12941382e-07       4.43508470e-06      -7.64325910e-06 
      -4.26527015e-07       4.43508436e-06      -7.64598512e-06 
       1.11656146e-07       4.43781156e-06      -7.64598613e-06 
       4.25241779e-07       4.43781190e-06      -7.64326011e-06 
      -1.12941382e-07       4.43508470e-06      -7.64325910e-06 
      -4.26527015e-07       4.43508436e-06      -7.64598512e-06 
       1.11656146e-07       4.43781156e-06      -7.64598613e-06 
       4.25241779e-07       4.43781190e-06      -7.64326011e-06 
      -1.17446898e-07       4.88081339e-06      -8.40803530e-06 
      -4.44030682e-07       4.88081302e-06      -8.41089636e-06 
       1.16106642e-07       4.88367535e-06      -8.41089745e-06 
       4.42690426e-07       4.88367572e-06      -8.40803639e-06 
      -1.17446898e-07       4.88081339e-06      -8.40803530e-06 
      -4.44030682e-07       4.88081302e-06      -8.41089636e-06 
       1.16106642e-07       4.88367535e-06      -8.41089745e-06 
       4.42690426e-07       4.88367572e-06      -8.40803639e-06 
      -1.21814610e-07       5.34442368e-06      -9.20298265e-06 
      -4.61075876e-07       5.34442328e-06      -9.20596276e-06 
       1.20439108e-07       5.34740477e-06      -9.20596394e-06 
       4.59700375e-07       5.34740517e-06      -9.20298382e-06 
      -1.21814610e-07       5.34442368e-06      -9.20298265e-06 
      -4.61075876e-07       5.34442328e-06      -9.20596276e-06 
       1.20439108e-07       5.34740477e-06      -9.20596394e-06 
       4.59700375e-07       5.34740517e-06      -9.20298382e-06 
      -1.26064509e-07       5.82547957e-06      -1.00273273e-05 
      -4.77702615e-07       5.82547914e-06      -1.00304265e-05 
       1.24653400e-07       5.82857978e-06      -1.00304277e-05 
       4.76291506e-07       5.82858021e-06      -1.00273286e-05 
      -1.26064509e-07       5.82547957e-06      -1.00273273e-05 
      -4.77702615e-07       5.82547914e-06      -1.00304265e-05 
       1.24653400e-07       5.82857978e-06      -1.00304277e-05 
       4.76291506e-07       5.82858021e-06      -1.00273286e-05 
      -1.30196591e-07       6.32356236e-06      -1.08803220e-05 
      -4.93910894e-07       6.32356190e-06      -1.08835402e-05 
       1.28749520e-07       6.32678169e-06      -1.08835416e-05 
       4.92463823e-07       6.32678216e-06      -1.08803233e-05 
      -1.30196591e-07       6.32356236e-06      -1.08803220e-05 
      -4.93910894e-07       6.32356190e-06      -1.08835402e-05 
       1.28749520e-07       6.32678169e-06      -1.08835416e-05 
       4.92463823e-07       6.32678216e-06      -1.08803233e-05 
      -1.34210852e-07       6.83825338e-06      -1.17612193e-05 
      -5.09700711e-07       6.83825289e-06      -1.17645566e-05 
       1.32727473e-07       6.84159184e-06      -1.17645580e-05 
       5.08217332e-07       6.84159233e-06      -1.17612208e-05 
      -1.34210852e-07       6.83825338e-06      -1.17612193e-05 
      -5.09700711e-07       6.83825289e-06      -1.17645566e-05 
       1.32727473e-07       6.84159184e-06      -1.17645580e-05 
       5.08217332e-07       6.84159233e-06      -1.17612208e-05 
      -1.38107287e-07       7.36913394e-06      -1.26692720e-05 
      -5.25072060e-07       7.36913342e-06      -1.26727284e-05 
       1.36587264e-07       7.37259153e-06      -1.26727299e-05 
       5.23552036e-07       7.37259205e-06      -1.26692736e-05 
      -1.38107287e-07       7.36913394e-06      -1.26692720e-05 
      -5.25072060e-07       7.36913342e-06      -1.26727284e-05 
       1.36587264e-07       7.37259153e-06      -1.26727299e-05 
       5.23552036e-07       7.37259205e-06      -1.26692736e-05 
      -1.41885892e-07       7.91578537e-06      -1.36037328e-05 
      -5.40024936e-07       7.91578482e-06      -1.36073082e-05 
       1.40328898e-07       7.91936208e-06      -1.36073098e-05 
       5.38467940e-07       7.91936264e-06      -1.36037344e-05 
      -1.41885892e-07       7.91578537e-06      -1.36037328e-05 
      -5.40024936e-07       7.91578482e-06      -1.36073082e-05 
       1.40328898e-07       7.91936208e-06      -1.36073098e-05 
       5.38467940e-07       7.91936264e-06      -1.36037344e-05 
      -1.45546663e-07       8.47778899e-06      -1.45638542e-05 
      -5.54559334e-07       8.47778841e-06      -1.45675487e-05 
       1.43952377e-07       8.48148483e-06      -1.45675504e-05 
       5.52965049e-07       8.48148541e-06      -1.45638559e-05 
      -1.45546663e-07       8.47778899e-06      -1.45638542e-05 
      -5.54559334e-07       8.47778841e-06      -1.45675487e-05 
       1.43952377e-07       8.48148483e-06      -1.45675504e-05 
       5.52965049e-07       8.48148541e-06      -1.45638559e-05 
      -1.49089592e-07       9.05472611e-06      -1.55488891e-05 
      -5.68675250e-07       9.05472550e-06      -1.55527025e-05 
       1.47457710e-07       9.05854107e-06      -1.55527043e-05 
       5.67043368e-07       9.05854169e-06      -1.55488909e-05 
      -1.49089592e-07       9.05472611e-06      -1.55488891e-05 
      -5.68675250e-07       9.05472550e-06      -1.55527025e-05 
       1.47457710e-07       9.05854107e-06      -1.55527043e-05 
       5.67043368e-07       9.05854169e-06      -1.55488909e-05 
      -1.52514679e-07       9.64617806e-06      -1.65580900e-05 
      -5.82372681e-07       9.64617742e-06      -1.65620225e-05 
       1.50844898e-07       9.65011214e-06      -1.65620244e-05 
       5.80702900e-07       9.65011279e-06      -1.65580918e-05 
      -1.52514679e-07       9.64617806e-06      -1.65580900e-05 
      -5.82372681e-07       9.64617742e-06      -1.65620225e-05 
       1.50844898e-07       9.65011214e-06      -1.65620244e-05 
       5.80702900e-07       9.65011279e-06      -1.65580918e-05 
      -1.55821917e-07       1.02517261e-05      -1.75907096e-05 
      -5.95651620e-07       1.02517255e-05      -1.75947612e-05 
       1.54113946e-07       1.02557794e-05      -1.75947632e-05 
       5.93943650e-07       1.02557800e-05      -1.75907116e-05 
      -1.55821916e-07       1.02517261e-05      -1.75907096e-05 
      -5.95651620e-07       1.02517255e-05      -1.75947612e-05 
       1.54113946e-07       1.02557794e-05      -1.75947632e-05 
       5.93943650e-07       1.02557800e-05      -1.75907116e-05 
      -1.59014779e-07       1.08709689e-05      -1.86460275e-05 
      -6.08535379e-07       1.08709682e-05      -1.86501822e-05 
       1.57281832e-07       1.08751252e-05      -1.86501842e-05 
       6.06802431e-07       1.08751259e-05      -1.86460296e-05 
      -1.59014779e-07       1.08709689e-05      -1.86460275e-05 
      -6.08535379e-07       1.08709682e-05      -1.86501822e-05 
       1.57281832e-07       1.08751252e-05      -1.86501842e-05 
       6.06802431e-07       1.08751259e-05      -1.86460296e-05 
      -1.62109447e-07       1.15035257e-05      -1.97233807e-05 
      -6.21060167e-07       1.15035250e-05      -1.97276385e-05 
       1.60351180e-07       1.15077853e-05      -1.97276406e-05 
       6.19301900e-07       1.15077860e-05      -1.97233829e-05 
      -1.62109447e-07       1.15035257e-05      -1.97233807e-05 
      -6.21060167e-07       1.15035250e-05      -1.97276385e-05 
       1.60351180e-07       1.15077853e-05      -1.97276406e-05 
       6.19301900e-07       1.15077860e-05      -1.97233829e-05 
      -1.65105914e-07       1.21490336e-05      -2.08221321e-05 
      -6.33225982e-07       1.21490329e-05      -2.08264930e-05 
       1.63321996e-07       1.21533963e-05      -2.08264952e-05 
       6.31442064e-07       1.21533971e-05      -2.08221343e-05 
      -1.65105914e-07       1.21490336e-05      -2.08221321e-05 
      -6.33225982e-07       1.21490329e-05      -2.08264930e-05 
       1.63321996e-07       1.21533963e-05      -2.08264952e-05 
       6.31442064e-07       1.21533971e-05      -2.08221343e-05 
      -1.68004177e-07       1.28071294e-05      -2.19416445e-05 
      -6.45032818e-07       1.28071286e-05      -2.19461085e-05 
       1.66194284e-07       1.28115952e-05      -2.19461107e-05 
       6.43222926e-07       1.28115960e-05      -2.19416468e-05 
      -1.68004177e-07       1.28071294e-05      -2.19416445e-05 
      -6.45032818e-07       1.28071286e-05      -2.19461085e-05 
       1.66194284e-07       1.28115952e-05      -2.19461107e-05 
       6.43222926e-07       1.28115960e-05      -2.19416468e-05 
      -1.70804229e-07       1.34774498e-05      -2.30812808e-05 
      -6.56480672e-07       1.34774490e-05      -2.30858478e-05 
       1.68968048e-07       1.34820188e-05      -2.30858502e-05 
       6.54644490e-07       1.34820196e-05      -2.30812832e-05 
      -1.70804229e-07       1.34774498e-05      -2.30812808e-05 
      -6.56480672e-07       1.34774490e-05      -2.30858478e-05 
       1.68968048e-07       1.34820188e-05      -2.30858502e-05 
       6.54644490e-07       1.34820196e-05      -2.30812832e-05 
      -1.73506068e-07       1.41596317e-05      -2.42404038e-05 
      -6.67569537e-07       1.41596309e-05      -2.42450740e-05 
       1.71643294e-07       1.41643039e-05      -2.42450764e-05 
       6.65706763e-07       1.41643048e-05      -2.42404063e-05 
      -1.73506068e-07       1.41596317e-05      -2.42404038e-05 
      -6.67569537e-07       1.41596309e-05      -2.42450740e-05 
       1.71643294e-07       1.41643039e-05      -2.42450764e-05 
       6.65706763e-07       1.41643048e-05      -2.42404063e-05 
      -1.76109687e-07       1.48533121e-05      -2.54183765e-05 
      -6.78299409e-07       1.48533112e-05      -2.54231498e-05 
       1.74220027e-07       1.48580874e-05      -2.54231523e-05 
       6.76409749e-07       1.48580883e-05      -2.54183790e-05 
      -1.76109687e-07       1.48533121e-05      -2.54183765e-05 
      -6.78299409e-07       1.48533112e-05      -2.54231498e-05 
       1.74220027e-07       1.48580874e-05      -2.54231523e-05 
       6.76409749e-07       1.48580883e-05      -2.54183790e-05 
      -1.78615080e-07       1.55581276e-05      -2.66145617e-05 
      -6.88670282e-07       1.55581267e-05      -2.66194380e-05 
       1.76698252e-07       1.55630061e-05      -2.66194406e-05 
       6.86753454e-07       1.55630070e-05      -2.66145643e-05 
      -1.78615080e-07       1.55581276e-05      -2.66145617e-05 
      -6.88670282e-07       1.55581267e-05      -2.66194380e-05 