# vtk DataFile Version 2.0
./output/onsasExample_BladeCantileverBeamPitch_windVel3DDynamic 3D/onsasExample_BladeCantileverBeamPitch_windVel3DDynamic 3D_0073.vtk
ASCII
DATASET UNSTRUCTURED_GRID

POINTS 800 float
       2.887772e-24      -7.180703e-02      -7.180703e-02 
      -2.483366e-23       7.180703e-02      -7.180703e-02 
      -2.887772e-24       7.180703e-02       7.180703e-02 
       2.483366e-23      -7.180703e-02       7.180703e-02 
       2.000000e-01      -7.180702e-02      -7.180706e-02 
       2.000000e-01       7.180705e-02      -7.180706e-02 
       2.000000e-01       7.180705e-02       7.180701e-02 
       2.000000e-01      -7.180702e-02       7.180701e-02 
       2.000000e-01      -7.180702e-02      -7.180706e-02 
       2.000000e-01       7.180705e-02      -7.180706e-02 
       2.000000e-01       7.180705e-02       7.180701e-02 
       2.000000e-01      -7.180702e-02       7.180701e-02 
       4.000000e-01      -7.180698e-02      -7.180713e-02 
       3.999999e-01       7.180709e-02      -7.180713e-02 
       4.000000e-01       7.180709e-02       7.180694e-02 
       4.000001e-01      -7.180698e-02       7.180694e-02 
       4.000000e-01      -7.180698e-02      -7.180713e-02 
       3.999999e-01       7.180709e-02      -7.180713e-02 
       4.000000e-01       7.180709e-02       7.180694e-02 
       4.000001e-01      -7.180698e-02       7.180694e-02 
       6.000000e-01      -7.180691e-02      -7.180725e-02 
       5.999999e-01       7.180716e-02      -7.180725e-02 
       6.000000e-01       7.180716e-02       7.180682e-02 
       6.000001e-01      -7.180691e-02       7.180682e-02 
       6.000000e-01      -7.180691e-02      -7.180725e-02 
       5.999999e-01       7.180716e-02      -7.180725e-02 
       6.000000e-01       7.180716e-02       7.180682e-02 
       6.000001e-01      -7.180691e-02       7.180682e-02 
       8.000000e-01      -7.180682e-02      -7.180741e-02 
       7.999999e-01       7.180725e-02      -7.180741e-02 
       8.000000e-01       7.180725e-02       7.180665e-02 
       8.000001e-01      -7.180682e-02       7.180666e-02 
       8.000000e-01      -7.180682e-02      -7.180741e-02 
       7.999999e-01       7.180725e-02      -7.180741e-02 
       8.000000e-01       7.180725e-02       7.180665e-02 
       8.000001e-01      -7.180682e-02       7.180666e-02 
       1.000000e+00      -7.180670e-02      -7.180762e-02 
       9.999999e-01       7.180737e-02      -7.180762e-02 
       1.000000e+00       7.180737e-02       7.180645e-02 
       1.000000e+00      -7.180670e-02       7.180645e-02 
       1.000000e+00      -7.180670e-02      -7.180762e-02 
       9.999999e-01       7.180737e-02      -7.180762e-02 
       1.000000e+00       7.180737e-02       7.180645e-02 
       1.000000e+00      -7.180670e-02       7.180645e-02 
       1.200000e+00      -7.180655e-02      -7.180787e-02 
       1.200000e+00       7.180751e-02      -7.180787e-02 
       1.200000e+00       7.180752e-02       7.180619e-02 
       1.200000e+00      -7.180655e-02       7.180619e-02 
       1.200000e+00      -7.180655e-02      -7.180787e-02 
       1.200000e+00       7.180751e-02      -7.180787e-02 
       1.200000e+00       7.180752e-02       7.180619e-02 
       1.200000e+00      -7.180655e-02       7.180619e-02 
       1.400000e+00      -7.180638e-02      -7.180817e-02 
       1.400000e+00       7.180768e-02      -7.180817e-02 
       1.400000e+00       7.180769e-02       7.180590e-02 
       1.400000e+00      -7.180638e-02       7.180590e-02 
       1.400000e+00      -7.180638e-02      -7.180817e-02 
       1.400000e+00       7.180768e-02      -7.180817e-02 
       1.400000e+00       7.180769e-02       7.180590e-02 
       1.400000e+00      -7.180638e-02       7.180590e-02 
       1.600000e+00      -7.180619e-02      -7.180850e-02 
       1.600000e+00       7.180788e-02      -7.180850e-02 
       1.600000e+00       7.180788e-02       7.180556e-02 
       1.600000e+00      -7.180619e-02       7.180556e-02 
       1.600000e+00      -7.180619e-02      -7.180850e-02 
       1.600000e+00       7.180788e-02      -7.180850e-02 
       1.600000e+00       7.180788e-02       7.180556e-02 
       1.600000e+00      -7.180619e-02       7.180556e-02 
       1.800000e+00      -7.180597e-02      -7.180888e-02 
       1.800000e+00       7.180810e-02      -7.180888e-02 
       1.800000e+00       7.180810e-02       7.180518e-02 
       1.800000e+00      -7.180597e-02       7.180519e-02 
       1.800000e+00      -7.180597e-02      -7.180888e-02 
       1.800000e+00       7.180810e-02      -7.180888e-02 
       1.800000e+00       7.180810e-02       7.180518e-02 
       1.800000e+00      -7.180597e-02       7.180519e-02 
       2.000000e+00      -7.180573e-02      -7.180930e-02 
       2.000000e+00       7.180834e-02      -7.180930e-02 
       2.000000e+00       7.180834e-02       7.180477e-02 
       2.000000e+00      -7.180573e-02       7.180477e-02 
       2.000000e+00      -7.180573e-02      -7.180930e-02 
       2.000000e+00       7.180834e-02      -7.180930e-02 
       2.000000e+00       7.180834e-02       7.180477e-02 
       2.000000e+00      -7.180573e-02       7.180477e-02 
       2.200000e+00      -7.180547e-02      -7.180975e-02 
       2.200000e+00       7.180860e-02      -7.180976e-02 
       2.200000e+00       7.180860e-02       7.180431e-02 
       2.200000e+00      -7.180546e-02       7.180431e-02 
       2.200000e+00      -7.180547e-02      -7.180975e-02 
       2.200000e+00       7.180860e-02      -7.180976e-02 
       2.200000e+00       7.180860e-02       7.180431e-02 
       2.200000e+00      -7.180546e-02       7.180431e-02 
       2.400000e+00      -7.180518e-02      -7.181025e-02 
       2.400000e+00       7.180889e-02      -7.181025e-02 
       2.400000e+00       7.180889e-02       7.180382e-02 
       2.400000e+00      -7.180518e-02       7.180382e-02 
       2.400000e+00      -7.180518e-02      -7.181025e-02 
       2.400000e+00       7.180889e-02      -7.181025e-02 
       2.400000e+00       7.180889e-02       7.180382e-02 
       2.400000e+00      -7.180518e-02       7.180382e-02 
       2.600000e+00      -7.180487e-02      -7.181078e-02 
       2.600000e+00       7.180919e-02      -7.181078e-02 
       2.600000e+00       7.180919e-02       7.180329e-02 
       2.600000e+00      -7.180487e-02       7.180329e-02 
       2.600000e+00      -7.180487e-02      -7.181078e-02 
       2.600000e+00       7.180919e-02      -7.181078e-02 
       2.600000e+00       7.180919e-02       7.180329e-02 
       2.600000e+00      -7.180487e-02       7.180329e-02 
       2.800000e+00      -7.180455e-02      -7.181135e-02 
       2.800000e+00       7.180952e-02      -7.181135e-02 
       2.800000e+00       7.180952e-02       7.180272e-02 
       2.800000e+00      -7.180454e-02       7.180272e-02 
       2.800000e+00      -7.180455e-02      -7.181135e-02 
       2.800000e+00       7.180952e-02      -7.181135e-02 
       2.800000e+00       7.180952e-02       7.180272e-02 
       2.800000e+00      -7.180454e-02       7.180272e-02 
       3.000000e+00      -7.180420e-02      -7.181195e-02 
       3.000000e+00       7.180987e-02      -7.181195e-02 
       3.000000e+00       7.180987e-02       7.180212e-02 
       3.000000e+00      -7.180420e-02       7.180212e-02 
       3.000000e+00      -7.180420e-02      -7.181195e-02 
       3.000000e+00       7.180987e-02      -7.181195e-02 
       3.000000e+00       7.180987e-02       7.180212e-02 
       3.000000e+00      -7.180420e-02       7.180212e-02 
       3.200000e+00      -7.180383e-02      -7.181259e-02 
       3.200000e+00       7.181024e-02      -7.181259e-02 
       3.200000e+00       7.181024e-02       7.180148e-02 
       3.200000e+00      -7.180383e-02       7.180148e-02 
       3.200000e+00      -7.180383e-02      -7.181259e-02 
       3.200000e+00       7.181024e-02      -7.181259e-02 
       3.200000e+00       7.181024e-02       7.180148e-02 
       3.200000e+00      -7.180383e-02       7.180148e-02 
       3.400000e+00      -7.180344e-02      -7.181326e-02 
       3.400000e+00       7.181063e-02      -7.181326e-02 
       3.400000e+00       7.181063e-02       7.180081e-02 
       3.400000e+00      -7.180344e-02       7.180081e-02 
       3.400000e+00      -7.180344e-02      -7.181326e-02 
       3.400000e+00       7.181063e-02      -7.181326e-02 
       3.400000e+00       7.181063e-02       7.180081e-02 
       3.400000e+00      -7.180344e-02       7.180081e-02 
       3.600000e+00      -7.180303e-02      -7.181396e-02 
       3.600000e+00       7.181103e-02      -7.181396e-02 
       3.600000e+00       7.181104e-02       7.180010e-02 
       3.600000e+00      -7.180303e-02       7.180011e-02 
       3.600000e+00      -7.180303e-02      -7.181396e-02 
       3.600000e+00       7.181103e-02      -7.181396e-02 
       3.600000e+00       7.181104e-02       7.180010e-02 
       3.600000e+00      -7.180303e-02       7.180011e-02 
       3.800000e+00      -7.180261e-02      -7.181470e-02 
       3.800000e+00       7.181146e-02      -7.181470e-02 
       3.800000e+00       7.181146e-02       7.179937e-02 
       3.800000e+00      -7.180260e-02       7.179937e-02 
       3.800000e+00      -7.180261e-02      -7.181470e-02 
       3.800000e+00       7.181146e-02      -7.181470e-02 
       3.800000e+00       7.181146e-02       7.179937e-02 
       3.800000e+00      -7.180260e-02       7.179937e-02 
       4.000000e+00      -7.180216e-02      -7.181546e-02 
       4.000000e+00       7.181191e-02      -7.181547e-02 
       4.000000e+00       7.181191e-02       7.179860e-02 
       4.000000e+00      -7.180216e-02       7.179860e-02 
       4.000000e+00      -7.180216e-02      -7.181546e-02 
       4.000000e+00       7.181191e-02      -7.181547e-02 
       4.000000e+00       7.181191e-02       7.179860e-02 
       4.000000e+00      -7.180216e-02       7.179860e-02 
       4.200000e+00      -7.180170e-02      -7.181626e-02 
[...]
POINT_DATA       800 
VECTORS Displacements float
       2.88777194e-24      -1.38777878e-17      -1.38777878e-17 
      -2.48336629e-23       1.38777878e-17      -1.38777878e-17 
      -2.88777194e-24       1.38777878e-17       1.38777878e-17 
       2.48336629e-23      -1.38777878e-17       1.38777878e-17 
      -7.38968625e-09       1.37580538e-08      -2.40329251e-08 
      -2.71951895e-08       1.37580525e-08      -2.41864190e-08 
       7.31336186e-09       1.39115512e-08      -2.41864231e-08 
       2.71188650e-08       1.39115525e-08      -2.40329292e-08 
      -7.38968625e-09       1.37580538e-08      -2.40329251e-08 
      -2.71951895e-08       1.37580525e-08      -2.41864190e-08 
       7.31336186e-09       1.39115512e-08      -2.41864231e-08 
       2.71188650e-08       1.39115525e-08      -2.40329292e-08 
      -1.46201024e-08       5.48335525e-08      -9.56371692e-08 
      -5.38517976e-08       5.48335472e-08      -9.59441525e-08 
       1.44673102e-08       5.51405491e-08      -9.59441688e-08 
       5.36990054e-08       5.51405545e-08      -9.56371855e-08 
      -1.46201024e-08       5.48335525e-08      -9.56371692e-08 
      -5.38517976e-08       5.48335472e-08      -9.59441525e-08 
       1.44673102e-08       5.51405491e-08      -9.59441688e-08 
       5.36990054e-08       5.51405545e-08      -9.56371855e-08 
      -2.16912470e-08       1.22698259e-07      -2.13840690e-07 
      -7.99698229e-08       1.22698247e-07      -2.14301159e-07 
       2.14618467e-08       1.23158757e-07      -2.14301194e-07 
       7.97404226e-08       1.23158769e-07      -2.13840726e-07 
      -2.16912470e-08       1.22698259e-07      -2.13840690e-07 
      -7.99698229e-08       1.22698247e-07      -2.14301159e-07 
       2.14618467e-08       1.23158757e-07      -2.14301194e-07 
       7.97404226e-08       1.23158769e-07      -2.13840726e-07 
      -2.86031188e-08       2.16823937e-07      -3.77671446e-07 
      -1.05549264e-07       2.16823917e-07      -3.78285395e-07 
       2.82969723e-08       2.17437938e-07      -3.78285458e-07 
       1.05243118e-07       2.17437958e-07      -3.77671508e-07 
      -2.86031188e-08       2.16823937e-07      -3.77671446e-07 
      -1.05549264e-07       2.16823917e-07      -3.78285395e-07 
       2.82969723e-08       2.17437938e-07      -3.78285458e-07 
       1.05243118e-07       2.17437958e-07      -3.77671508e-07 
      -3.53557158e-08       3.36682349e-07      -5.86157394e-07 
      -1.30590120e-07       3.36682318e-07      -5.86924821e-07 
       3.49726890e-08       3.37449854e-07      -5.86924916e-07 
       1.30207093e-07       3.37449886e-07      -5.86157489e-07 
      -3.53557158e-08       3.36682349e-07      -5.86157394e-07 
      -1.30590120e-07       3.36682318e-07      -5.86924821e-07 
       3.49726890e-08       3.37449854e-07      -5.86924916e-07 
       1.30207093e-07       3.37449886e-07      -5.86157489e-07 
      -4.19490369e-08       4.81745259e-07      -8.38326492e-07 
      -1.55092388e-07       4.81745215e-07      -8.39247393e-07 
       4.14889980e-08       4.82666270e-07      -8.39247527e-07 
       1.54632349e-07       4.82666314e-07      -8.38326627e-07 
      -4.19490369e-08       4.81745259e-07      -8.38326492e-07 
      -1.55092388e-07       4.81745215e-07      -8.39247393e-07 
       4.14889980e-08       4.82666270e-07      -8.39247527e-07 
       1.54632349e-07       4.82666314e-07      -8.38326627e-07 
      -4.83830813e-08       6.51484430e-07      -1.13320670e-06 
      -1.79056068e-07       6.51484370e-07      -1.13428107e-06 
       4.78459010e-08       6.52558947e-07      -1.13428125e-06 
       1.78518887e-07       6.52559007e-07      -1.13320688e-06 
      -4.83830813e-08       6.51484430e-07      -1.13320670e-06 
      -1.79056068e-07       6.51484370e-07      -1.13428107e-06 
       4.78459010e-08       6.52558947e-07      -1.13428125e-06 
       1.78518887e-07       6.52559007e-07      -1.13320688e-06 
      -5.46578467e-08       8.45371624e-07      -1.46982597e-06 
      -2.02481158e-07       8.45371548e-07      -1.47105381e-06 
       5.40433984e-08       8.46599650e-07      -1.47105404e-06 
       2.01866710e-07       8.46599726e-07      -1.46982620e-06 
      -5.46578467e-08       8.45371624e-07      -1.46982597e-06 
      -2.02481158e-07       8.45371548e-07      -1.47105381e-06 
       5.40433984e-08       8.46599650e-07      -1.47105404e-06 
       2.01866710e-07       8.46599726e-07      -1.46982620e-06 
      -6.07733317e-08       1.06287860e-06      -1.84721227e-06 
      -2.25367657e-07       1.06287851e-06      -1.84859357e-06 
       6.00814931e-08       1.06426014e-06      -1.84859385e-06 
       2.24675818e-07       1.06426023e-06      -1.84721255e-06 
      -6.07733317e-08       1.06287860e-06      -1.84721227e-06 
      -2.25367657e-07       1.06287851e-06      -1.84859357e-06 
       6.00814931e-08       1.06426014e-06      -1.84859385e-06 
       2.24675818e-07       1.06426023e-06      -1.84721255e-06 
      -6.67295355e-08       1.30347714e-06      -2.26439354e-06 
      -2.47715563e-07       1.30347702e-06      -2.26592831e-06 
       6.59601858e-08       1.30501218e-06      -2.26592865e-06 
       2.46946213e-07       1.30501230e-06      -2.26439389e-06 
      -6.67295352e-08       1.30347714e-06      -2.26439354e-06 
      -2.47715562e-07       1.30347702e-06      -2.26592831e-06 
       6.59601858e-08       1.30501218e-06      -2.26592865e-06 
       2.46946213e-07       1.30501230e-06      -2.26439389e-06 
      -7.25215474e-08       1.56665599e-06      -2.72042326e-06 
      -2.69539429e-07       1.56665586e-06      -2.72209543e-06 
       7.17030049e-08       1.56832850e-06      -2.72209584e-06 
       2.68720886e-07       1.56832864e-06      -2.72042366e-06 
      -7.25215474e-08       1.56665599e-06      -2.72042326e-06 
      -2.69539429e-07       1.56665586e-06      -2.72209543e-06 
       7.17030049e-08       1.56832850e-06      -2.72209584e-06 
       2.68720886e-07       1.56832864e-06      -2.72042366e-06 
      -7.81736698e-08       1.85192442e-06      -3.21441116e-06 
      -2.90883427e-07       1.85192426e-06      -3.21622074e-06 
       7.73056219e-08       1.85373439e-06      -3.21622122e-06 
       2.90015379e-07       1.85373455e-06      -3.21441163e-06 
      -7.81736698e-08       1.85192442e-06      -3.21441116e-06 
      -2.90883427e-07       1.85192426e-06      -3.21622074e-06 
       7.73056219e-08       1.85373439e-06      -3.21622122e-06 
       2.90015379e-07       1.85373455e-06      -3.21441163e-06 
      -8.36858995e-08       2.15880895e-06      -3.74549373e-06 
      -3.11747555e-07       2.15880877e-06      -3.74744072e-06 
       8.27680395e-08       2.16075639e-06      -3.74744127e-06 
       3.10829695e-07       2.16075657e-06      -3.74549427e-06 
      -8.36858995e-08       2.15880895e-06      -3.74549373e-06 
      -3.11747555e-07       2.15880877e-06      -3.74744072e-06 
       8.27680395e-08       2.16075639e-06      -3.74744127e-06 
       3.10829695e-07       2.16075657e-06      -3.74549427e-06 
      -8.90582328e-08       2.48683613e-06      -4.31280745e-06 
      -3.32131809e-07       2.48683593e-06      -4.31489185e-06 
       8.80902626e-08       2.48892104e-06      -4.31489246e-06 
       3.31163839e-07       2.48892124e-06      -4.31280806e-06 
      -8.90582328e-08       2.48683613e-06      -4.31280745e-06 
      -3.32131809e-07       2.48683593e-06      -4.31489185e-06 
       8.80902626e-08       2.48892104e-06      -4.31489246e-06 
       3.31163839e-07       2.48892124e-06      -4.31280806e-06 
      -9.42906664e-08       2.83553250e-06      -4.91548879e-06 
      -3.52036185e-07       2.83553227e-06      -4.91771059e-06 
       9.32722930e-08       2.83775487e-06      -4.91771128e-06 
       3.51017812e-07       2.83775510e-06      -4.91548948e-06 
      -9.42906664e-08       2.83553250e-06      -4.91548879e-06 
      -3.52036185e-07       2.83553227e-06      -4.91771059e-06 
       9.32722930e-08       2.83775487e-06      -4.91771128e-06 
       3.51017812e-07       2.83775510e-06      -4.91548948e-06 
      -9.93831968e-08       3.20442460e-06      -5.55267424e-06 
      -3.71460679e-07       3.20442434e-06      -5.55503344e-06 
       9.83141359e-08       3.20678443e-06      -5.55503421e-06 
       3.70391619e-07       3.20678469e-06      -5.55267500e-06 
      -9.93831968e-08       3.20442460e-06      -5.55267424e-06 
      -3.71460679e-07       3.20442434e-06      -5.55503344e-06 
       9.83141359e-08       3.20678443e-06      -5.55503421e-06 
       3.70391619e-07       3.20678469e-06      -5.55267500e-06 
      -1.04335819e-07       3.59303896e-06      -6.22350026e-06 
      -3.90405288e-07       3.59303867e-06      -6.22599687e-06 
       1.03215794e-07       3.59553626e-06      -6.22599771e-06 
       3.89285263e-07       3.59553655e-06      -6.22350111e-06 
      -1.04335819e-07       3.59303896e-06      -6.22350026e-06 
      -3.90405288e-07       3.59303867e-06      -6.22599687e-06 
       1.03215794e-07       3.59553626e-06      -6.22599771e-06 
       3.89285263e-07       3.59553655e-06      -6.22350111e-06 
      -1.09148532e-07       4.00090213e-06      -6.92710334e-06 
      -4.08870010e-07       4.00090182e-06      -6.92973735e-06 
       1.07977271e-07       4.00353690e-06      -6.92973828e-06 
       4.07698749e-07       4.00353721e-06      -6.92710427e-06 
      -1.09148532e-07       4.00090213e-06      -6.92710334e-06 
      -4.08870010e-07       4.00090182e-06      -6.92973735e-06 
       1.07977271e-07       4.00353690e-06      -6.92973828e-06 
       4.07698749e-07       4.00353721e-06      -6.92710427e-06 
      -1.13821330e-07       4.42754064e-06      -7.66261996e-06 
      -4.26854839e-07       4.42754030e-06      -7.66539137e-06 
       1.12598570e-07       4.43031288e-06      -7.66539238e-06 
       4.25632079e-07       4.43031322e-06      -7.66262098e-06 
      -1.13821330e-07       4.42754064e-06      -7.66261996e-06 
      -4.26854839e-07       4.42754030e-06      -7.66539137e-06 
       1.12598570e-07       4.43031288e-06      -7.66539238e-06 
       4.25632079e-07       4.43031322e-06      -7.66262098e-06 
      -1.18354212e-07       4.87248104e-06      -8.42918660e-06 
      -4.44359773e-07       4.87248067e-06      -8.43209540e-06 
       1.17079694e-07       4.87539075e-06      -8.43209650e-06 
       4.43085256e-07       4.87539112e-06      -8.42918769e-06 
      -1.18354211e-07       4.87248104e-06      -8.42918660e-06 
      -4.44359773e-07       4.87248067e-06      -8.43209540e-06 
       1.17079695e-07       4.87539075e-06      -8.43209650e-06 
       4.43085256e-07       4.87539112e-06      -8.42918769e-06 
      -1.22746912e-07       5.33526699e-06      -9.22596580e-06 
      -4.61404192e-07       5.33526659e-06      -9.22899591e-06 
       1.21440312e-07       5.33829808e-06      -9.22899709e-06 
       4.60097591e-07       5.33829848e-06      -9.22596698e-06 
      -1.22746912e-07       5.33526699e-06      -9.22596580e-06 
      -4.61404192e-07       5.33526659e-06      -9.22899591e-06 
       1.21440312e-07       5.33829808e-06      -9.22899709e-06 
       4.60097591e-07       5.33829848e-06      -9.22596698e-06 
      -1.27019390e-07       5.81546284e-06      -1.00521773e-05 
      -4.78028013e-07       5.81546241e-06      -1.00553287e-05 
       1.25680341e-07       5.81861531e-06      -1.00553300e-05 
       4.76688964e-07       5.81861573e-06      -1.00521785e-05 
      -1.27019390e-07       5.81546284e-06      -1.00521773e-05 
      -4.78028013e-07       5.81546241e-06      -1.00553287e-05 
       1.25680341e-07       5.81861531e-06      -1.00553300e-05 
       4.76688964e-07       5.81861573e-06      -1.00521785e-05 
      -1.31171638e-07       6.31265027e-06      -1.09070674e-05 
      -4.94231229e-07       6.31264981e-06      -1.09103401e-05 
       1.29799789e-07       6.31592412e-06      -1.09103414e-05 
       4.92859379e-07       6.31592458e-06      -1.09070687e-05 
      -1.31171638e-07       6.31265027e-06      -1.09070674e-05 
      -4.94231229e-07       6.31264981e-06      -1.09103401e-05 
       1.29799789e-07       6.31592412e-06      -1.09103414e-05 
       4.92859379e-07       6.31592458e-06      -1.09070687e-05 
      -1.35203654e-07       6.82641098e-06      -1.17898824e-05 
      -5.10013838e-07       6.82641050e-06      -1.17932764e-05 
       1.33798657e-07       6.82980621e-06      -1.17932779e-05 
       5.08608840e-07       6.82980670e-06      -1.17898838e-05 
      -1.35203654e-07       6.82641098e-06      -1.17898824e-05 
      -5.10013838e-07       6.82641050e-06      -1.17932764e-05 
       1.33798657e-07       6.82980621e-06      -1.17932779e-05 
       5.08608840e-07       6.82980670e-06      -1.17898838e-05 
      -1.39115434e-07       7.35632667e-06      -1.26998687e-05 
      -5.25375836e-07       7.35632615e-06      -1.27033840e-05 
       1.37676950e-07       7.35984327e-06      -1.27033856e-05 
       5.23937352e-07       7.35984379e-06      -1.26998702e-05 
      -1.39115434e-07       7.35632667e-06      -1.26998687e-05 
      -5.25375836e-07       7.35632615e-06      -1.27033840e-05 
       1.37676950e-07       7.35984327e-06      -1.27033856e-05 
       5.23937352e-07       7.35984379e-06      -1.26998702e-05 
      -1.42906972e-07       7.90197901e-06      -1.36362726e-05 
      -5.40317216e-07       7.90197846e-06      -1.36399092e-05 
       1.41434675e-07       7.90561699e-06      -1.36399109e-05 
       5.38844919e-07       7.90561754e-06      -1.36362742e-05 
      -1.42906972e-07       7.90197901e-06      -1.36362726e-05 
      -5.40317216e-07       7.90197846e-06      -1.36399092e-05 
       1.41434675e-07       7.90561699e-06      -1.36399109e-05 
       5.38844919e-07       7.90561754e-06      -1.36362742e-05 
      -1.46578263e-07       8.46294970e-06      -1.45983404e-05 
      -5.54837975e-07       8.46294912e-06      -1.46020984e-05 
       1.45071835e-07       8.46670907e-06      -1.46021001e-05 
       5.53331546e-07       8.46670965e-06      -1.45983421e-05 
      -1.46578263e-07       8.46294970e-06      -1.45983404e-05 
      -5.54837975e-07       8.46294912e-06      -1.46020984e-05 
       1.45071835e-07       8.46670907e-06      -1.46021001e-05 
       5.53331546e-07       8.46670965e-06      -1.45983421e-05 
      -1.50129303e-07       9.03882044e-06      -1.55853186e-05 
      -5.68938106e-07       9.03881983e-06      -1.55891978e-05 
       1.48588436e-07       9.04270118e-06      -1.55891996e-05 
       5.67397239e-07       9.04270180e-06      -1.55853203e-05 
      -1.50129303e-07       9.03882044e-06      -1.55853186e-05 
      -5.68938106e-07       9.03881983e-06      -1.55891978e-05 
       1.48588436e-07       9.04270118e-06      -1.55891996e-05 
       5.67397239e-07       9.04270180e-06      -1.55853203e-05 
      -1.53560087e-07       9.62917291e-06      -1.65964533e-05 
      -5.82617608e-07       9.62917227e-06      -1.66004538e-05 
       1.51984479e-07       9.63317504e-06      -1.66004557e-05 
       5.81042001e-07       9.63317568e-06      -1.65964551e-05 
      -1.53560087e-07       9.62917291e-06      -1.65964533e-05 
      -5.82617608e-07       9.62917227e-06      -1.66004538e-05 
       1.51984479e-07       9.63317504e-06      -1.66004557e-05 
       5.81042001e-07       9.63317568e-06      -1.65964551e-05 
      -1.56870612e-07       1.02335888e-05      -1.76309909e-05 
      -5.95876475e-07       1.02335881e-05      -1.76351128e-05 
       1.55259973e-07       1.02377123e-05      -1.76351148e-05 
       5.94265837e-07       1.02377130e-05      -1.76309929e-05 
      -1.56870612e-07       1.02335888e-05      -1.76309909e-05 
      -5.95876474e-07       1.02335881e-05      -1.76351128e-05 
       1.55259973e-07       1.02377123e-05      -1.76351148e-05 
       5.94265836e-07       1.02377130e-05      -1.76309929e-05 
      -1.60064149e-07       1.08516670e-05      -1.86882043e-05 
      -6.08737765e-07       1.08516663e-05      -1.86924314e-05 
       1.58431491e-07       1.08558958e-05      -1.86924334e-05 
       6.07105108e-07       1.08558965e-05      -1.86882064e-05 
      -1.60064149e-07       1.08516670e-05      -1.86882043e-05 
      -6.08737765e-07       1.08516663e-05      -1.86924314e-05 
       1.58431491e-07       1.08558958e-05      -1.86924334e-05 
       6.07105108e-07       1.08558965e-05      -1.86882064e-05 
      -1.63157108e-07       1.14830274e-05      -1.97674236e-05 
      -6.21237911e-07       1.14830266e-05      -1.97717559e-05 
       1.61502090e-07       1.14873614e-05      -1.97717580e-05 
       6.19582893e-07       1.14873621e-05      -1.97674257e-05 
      -1.63157108e-07       1.14830274e-05      -1.97674236e-05 
      -6.21237911e-07       1.14830266e-05      -1.97717559e-05 
       1.61502090e-07       1.14873614e-05      -1.97717580e-05 
       6.19582893e-07       1.14873621e-05      -1.97674257e-05 
      -1.66149485e-07       1.21273069e-05      -2.08680053e-05 
      -6.33376906e-07       1.21273061e-05      -2.08724427e-05 
       1.64471776e-07       1.21317462e-05      -2.08724450e-05 
       6.31699197e-07       1.21317469e-05      -2.08680075e-05 
      -1.66149485e-07       1.21273069e-05      -2.08680053e-05 
      -6.33376906e-07       1.21273061e-05      -2.08724427e-05 
       1.64471776e-07       1.21317462e-05      -2.08724450e-05 
       6.31699197e-07       1.21317469e-05      -2.08680075e-05 
      -1.69041278e-07       1.27841427e-05      -2.19893059e-05 
      -6.45154749e-07       1.27841420e-05      -2.19938486e-05 
       1.67340551e-07       1.27886873e-05      -2.19938509e-05 
       6.43454023e-07       1.27886881e-05      -2.19893082e-05 
      -1.69041278e-07       1.27841427e-05      -2.19893059e-05 
      -6.45154749e-07       1.27841420e-05      -2.19938486e-05 
       1.67340551e-07       1.27886873e-05      -2.19938509e-05 
       6.43454023e-07       1.27886881e-05      -2.19893082e-05 
      -1.71832478e-07       1.34531721e-05      -2.31306820e-05 
      -6.56571433e-07       1.34531713e-05      -2.31353298e-05 
       1.70108423e-07       1.34578219e-05      -2.31353322e-05 
       6.54847378e-07       1.34578227e-05      -2.31306844e-05 
      -1.71832478e-07       1.34531721e-05      -2.31306820e-05 
      -6.56571433e-07       1.34531713e-05      -2.31353298e-05 
       1.70108423e-07       1.34578219e-05      -2.31353322e-05 
       6.54847378e-07       1.34578227e-05      -2.31306844e-05 
      -1.74523082e-07       1.41340320e-05      -2.42914901e-05 
      -6.67626953e-07       1.41340311e-05      -2.42962431e-05 
       1.72775396e-07       1.41387870e-05      -2.42962455e-05 
       6.65879266e-07       1.41387879e-05      -2.42914925e-05 
      -1.74523082e-07       1.41340320e-05      -2.42914901e-05 
      -6.67626953e-07       1.41340311e-05      -2.42962431e-05 
       1.72775396e-07       1.41387870e-05      -2.42962455e-05 
       6.65879266e-07       1.41387879e-05      -2.42914925e-05 
      -1.77113085e-07       1.48263596e-05      -2.54710866e-05 
      -6.78321303e-07       1.48263588e-05      -2.54759448e-05 
       1.75341474e-07       1.48312199e-05      -2.54759474e-05 
       6.76549693e-07       1.48312208e-05      -2.54710892e-05 
      -1.77113085e-07       1.48263596e-05      -2.54710866e-05 
      -6.78321303e-07       1.48263588e-05      -2.54759448e-05 
       1.75341474e-07       1.48312199e-05      -2.54759474e-05 
       6.76549693e-07       1.48312208e-05      -2.54710892e-05 
      -1.79602480e-07       1.55297921e-05      -2.66688282e-05 
      -6.88654479e-07       1.55297912e-05      -2.66737916e-05 
       1.77806664e-07       1.55347577e-05      -2.66737942e-05 
       6.86858663e-07       1.55347586e-05      -2.66688308e-05 
      -1.79602480e-07       1.55297921e-05      -2.66688282e-05 
      -6.88654479e-07       1.55297912e-05      -2.66737916e-05 