# vtk DataFile Version 2.0
./output/onsasExample_BladeCantileverBeamPitch_windVel3DDynamic 3D/onsasExample_BladeCantileverBeamPitch_windVel3DDynamic 3D_0116.vtk
ASCII
DATASET UNSTRUCTURED_GRID

POINTS 800 float
      -4.887361e-24      -7.180703e-02      -7.180703e-02 
       6.419103e-24       7.180703e-02      -7.180703e-02 
       4.887361e-24       7.180703e-02       7.180703e-02 
      -6.419103e-24      -7.180703e-02       7.180703e-02 
       2.000000e-01      -7.180702e-02      -7.180706e-02 
       2.000000e-01       7.180705e-02      -7.180706e-02 
       2.000000e-01       7.180705e-02       7.180701e-02 
       2.000000e-01      -7.180702e-02       7.180701e-02 
       2.000000e-01      -7.180702e-02      -7.180706e-02 
       2.000000e-01       7.180705e-02      -7.180706e-02 
       2.000000e-01       7.180705e-02       7.180701e-02 
       2.000000e-01      -7.180702e-02       7.180701e-02 
       4.000000e-01      -7.180698e-02      -7.180713e-02 
       3.999999e-01       7.180709e-02      -7.180713e-02 
       4.000000e-01       7.180709e-02       7.180693e-02 
       4.000001e-01      -7.180698e-02       7.180693e-02 
       4.000000e-01      -7.180698e-02      -7.180713e-02 
       3.999999e-01       7.180709e-02      -7.180713e-02 
       4.000000e-01       7.180709e-02       7.180693e-02 
       4.000001e-01      -7.180698e-02       7.180693e-02 
       6.000000e-01      -7.180691e-02      -7.180725e-02 
       5.999999e-01       7.180716e-02      -7.180725e-02 
       6.000000e-01       7.180716e-02       7.180681e-02 
       6.000001e-01      -7.180691e-02       7.180681e-02 
       6.000000e-01      -7.180691e-02      -7.180725e-02 
       5.999999e-01       7.180716e-02      -7.180725e-02 
       6.000000e-01       7.180716e-02       7.180681e-02 
       6.000001e-01      -7.180691e-02       7.180681e-02 
       8.000000e-01      -7.180682e-02      -7.180742e-02 
       7.999999e-01       7.180725e-02      -7.180742e-02 
       8.000000e-01       7.180725e-02       7.180664e-02 
       8.000001e-01      -7.180681e-02       7.180664e-02 
       8.000000e-01      -7.180682e-02      -7.180742e-02 
       7.999999e-01       7.180725e-02      -7.180742e-02 
       8.000000e-01       7.180725e-02       7.180664e-02 
       8.000001e-01      -7.180681e-02       7.180664e-02 
       1.000000e+00      -7.180670e-02      -7.180764e-02 
       9.999999e-01       7.180737e-02      -7.180764e-02 
       1.000000e+00       7.180737e-02       7.180643e-02 
       1.000000e+00      -7.180669e-02       7.180643e-02 
       1.000000e+00      -7.180670e-02      -7.180764e-02 
       9.999999e-01       7.180737e-02      -7.180764e-02 
       1.000000e+00       7.180737e-02       7.180643e-02 
       1.000000e+00      -7.180669e-02       7.180643e-02 
       1.200000e+00      -7.180655e-02      -7.180790e-02 
       1.200000e+00       7.180752e-02      -7.180790e-02 
       1.200000e+00       7.180752e-02       7.180617e-02 
       1.200000e+00      -7.180655e-02       7.180617e-02 
       1.200000e+00      -7.180655e-02      -7.180790e-02 
       1.200000e+00       7.180752e-02      -7.180790e-02 
       1.200000e+00       7.180752e-02       7.180617e-02 
       1.200000e+00      -7.180655e-02       7.180617e-02 
       1.400000e+00      -7.180638e-02      -7.180820e-02 
       1.400000e+00       7.180769e-02      -7.180821e-02 
       1.400000e+00       7.180769e-02       7.180586e-02 
       1.400000e+00      -7.180638e-02       7.180586e-02 
       1.400000e+00      -7.180638e-02      -7.180820e-02 
       1.400000e+00       7.180769e-02      -7.180821e-02 
       1.400000e+00       7.180769e-02       7.180586e-02 
       1.400000e+00      -7.180638e-02       7.180586e-02 
       1.600000e+00      -7.180618e-02      -7.180855e-02 
       1.600000e+00       7.180788e-02      -7.180855e-02 
       1.600000e+00       7.180788e-02       7.180551e-02 
       1.600000e+00      -7.180618e-02       7.180551e-02 
       1.600000e+00      -7.180618e-02      -7.180855e-02 
       1.600000e+00       7.180788e-02      -7.180855e-02 
       1.600000e+00       7.180788e-02       7.180551e-02 
       1.600000e+00      -7.180618e-02       7.180551e-02 
       1.800000e+00      -7.180597e-02      -7.180894e-02 
       1.800000e+00       7.180810e-02      -7.180894e-02 
       1.800000e+00       7.180810e-02       7.180512e-02 
       1.800000e+00      -7.180597e-02       7.180512e-02 
       1.800000e+00      -7.180597e-02      -7.180894e-02 
       1.800000e+00       7.180810e-02      -7.180894e-02 
       1.800000e+00       7.180810e-02       7.180512e-02 
       1.800000e+00      -7.180597e-02       7.180512e-02 
       2.000000e+00      -7.180572e-02      -7.180937e-02 
       2.000000e+00       7.180834e-02      -7.180938e-02 
       2.000000e+00       7.180834e-02       7.180469e-02 
       2.000000e+00      -7.180572e-02       7.180469e-02 
       2.000000e+00      -7.180572e-02      -7.180937e-02 
       2.000000e+00       7.180834e-02      -7.180938e-02 
       2.000000e+00       7.180834e-02       7.180469e-02 
       2.000000e+00      -7.180572e-02       7.180469e-02 
       2.200000e+00      -7.180546e-02      -7.180985e-02 
       2.200000e+00       7.180861e-02      -7.180985e-02 
       2.200000e+00       7.180861e-02       7.180422e-02 
       2.200000e+00      -7.180546e-02       7.180422e-02 
       2.200000e+00      -7.180546e-02      -7.180985e-02 
       2.200000e+00       7.180861e-02      -7.180985e-02 
       2.200000e+00       7.180861e-02       7.180422e-02 
       2.200000e+00      -7.180546e-02       7.180422e-02 
       2.400000e+00      -7.180517e-02      -7.181036e-02 
       2.400000e+00       7.180889e-02      -7.181036e-02 
       2.400000e+00       7.180889e-02       7.180371e-02 
       2.400000e+00      -7.180517e-02       7.180371e-02 
       2.400000e+00      -7.180517e-02      -7.181036e-02 
       2.400000e+00       7.180889e-02      -7.181036e-02 
       2.400000e+00       7.180889e-02       7.180371e-02 
       2.400000e+00      -7.180517e-02       7.180371e-02 
       2.600000e+00      -7.180487e-02      -7.181091e-02 
       2.600000e+00       7.180920e-02      -7.181091e-02 
       2.600000e+00       7.180920e-02       7.180316e-02 
       2.600000e+00      -7.180486e-02       7.180316e-02 
       2.600000e+00      -7.180487e-02      -7.181091e-02 
       2.600000e+00       7.180920e-02      -7.181091e-02 
       2.600000e+00       7.180920e-02       7.180316e-02 
       2.600000e+00      -7.180486e-02       7.180316e-02 
       2.800000e+00      -7.180454e-02      -7.181150e-02 
       2.800000e+00       7.180953e-02      -7.181150e-02 
       2.800000e+00       7.180953e-02       7.180257e-02 
       2.800000e+00      -7.180453e-02       7.180257e-02 
       2.800000e+00      -7.180454e-02      -7.181150e-02 
       2.800000e+00       7.180953e-02      -7.181150e-02 
       2.800000e+00       7.180953e-02       7.180257e-02 
       2.800000e+00      -7.180453e-02       7.180257e-02 
       3.000000e+00      -7.180419e-02      -7.181212e-02 
       3.000000e+00       7.180988e-02      -7.181212e-02 
       3.000000e+00       7.180988e-02       7.180194e-02 
       3.000000e+00      -7.180418e-02       7.180194e-02 
       3.000000e+00      -7.180419e-02      -7.181212e-02 
       3.000000e+00       7.180988e-02      -7.181212e-02 
       3.000000e+00       7.180988e-02       7.180194e-02 
       3.000000e+00      -7.180418e-02       7.180194e-02 
       3.200000e+00      -7.180382e-02      -7.181278e-02 
       3.200000e+00       7.181025e-02      -7.181278e-02 
       3.200000e+00       7.181025e-02       7.180128e-02 
       3.200000e+00      -7.180381e-02       7.180128e-02 
       3.200000e+00      -7.180382e-02      -7.181278e-02 
       3.200000e+00       7.181025e-02      -7.181278e-02 
       3.200000e+00       7.181025e-02       7.180128e-02 
       3.200000e+00      -7.180381e-02       7.180128e-02 
       3.400000e+00      -7.180343e-02      -7.181348e-02 
       3.400000e+00       7.181064e-02      -7.181348e-02 
       3.400000e+00       7.181064e-02       7.180058e-02 
       3.400000e+00      -7.180342e-02       7.180059e-02 
       3.400000e+00      -7.180343e-02      -7.181348e-02 
       3.400000e+00       7.181064e-02      -7.181348e-02 
       3.400000e+00       7.181064e-02       7.180058e-02 
       3.400000e+00      -7.180342e-02       7.180059e-02 
       3.600000e+00      -7.180302e-02      -7.181421e-02 
       3.600000e+00       7.181105e-02      -7.181421e-02 
       3.600000e+00       7.181105e-02       7.179985e-02 
       3.600000e+00      -7.180301e-02       7.179986e-02 
       3.600000e+00      -7.180302e-02      -7.181421e-02 
       3.600000e+00       7.181105e-02      -7.181421e-02 
       3.600000e+00       7.181105e-02       7.179985e-02 
       3.600000e+00      -7.180301e-02       7.179986e-02 
       3.800000e+00      -7.180259e-02      -7.181497e-02 
       3.800000e+00       7.181148e-02      -7.181498e-02 
       3.800000e+00       7.181148e-02       7.179909e-02 
       3.800000e+00      -7.180259e-02       7.179909e-02 
       3.800000e+00      -7.180259e-02      -7.181497e-02 
       3.800000e+00       7.181148e-02      -7.181498e-02 
       3.800000e+00       7.181148e-02       7.179909e-02 
       3.800000e+00      -7.180259e-02       7.179909e-02 
       4.000000e+00      -7.180214e-02      -7.181577e-02 
       4.000000e+00       7.181192e-02      -7.181577e-02 
       4.000000e+00       7.181193e-02       7.179829e-02 
       4.000000e+00      -7.180214e-02       7.179830e-02 
       4.000000e+00      -7.180214e-02      -7.181577e-02 
       4.000000e+00       7.181192e-02      -7.181577e-02 
       4.000000e+00       7.181193e-02       7.179829e-02 
       4.000000e+00      -7.180214e-02       7.179830e-02 
       4.200000e+00      -7.180168e-02      -7.181660e-02 
[...]
POINT_DATA       800 
VECTORS Displacements float
      -4.88736068e-24      -1.38777878e-17      -1.38777878e-17 
       6.41910341e-24       0.00000000e+00      -1.38777878e-17 
       4.88736068e-24       1.38777878e-17       1.38777878e-17 
      -6.41910341e-24       0.00000000e+00       1.38777878e-17 
      -7.91380872e-09       1.38041260e-08      -2.48089276e-08 
      -2.77841519e-08       1.38041246e-08      -2.49604279e-08 
       7.83709109e-09       1.39556298e-08      -2.49604323e-08 
       2.77074342e-08       1.39556312e-08      -2.48089320e-08 
      -7.91380872e-09       1.38041260e-08      -2.48089276e-08 
      -2.77841519e-08       1.38041246e-08      -2.49604279e-08 
       7.83709109e-09       1.39556298e-08      -2.49604323e-08 
       2.77074342e-08       1.39556312e-08      -2.48089320e-08 
      -1.56670580e-08       5.50164342e-08      -9.87373712e-08 
      -5.50290648e-08       5.50164288e-08      -9.90403670e-08 
       1.55134718e-08       5.53194440e-08      -9.90403843e-08 
       5.48754786e-08       5.53194494e-08      -9.87373885e-08 
      -1.56670580e-08       5.50164342e-08      -9.87373712e-08 
      -5.50290648e-08       5.50164288e-08      -9.90403670e-08 
       1.55134718e-08       5.53194440e-08      -9.90403843e-08 
       5.48754786e-08       5.53194494e-08      -9.87373885e-08 
      -2.32597464e-08       1.23109568e-07      -2.20810567e-07 
      -8.17347374e-08       1.23109556e-07      -2.21265053e-07 
       2.30291436e-08       1.23564085e-07      -2.21265092e-07 
       8.15041346e-08       1.23564097e-07      -2.20810605e-07 
      -2.32597464e-08       1.23109568e-07      -2.20810567e-07 
      -8.17347374e-08       1.23109556e-07      -2.21265053e-07 
       2.30291436e-08       1.23564085e-07      -2.21265092e-07 
       8.15041346e-08       1.23564097e-07      -2.20810605e-07 
      -3.06918720e-08       2.17556169e-07      -3.90053750e-07 
      -1.07901168e-07       2.17556148e-07      -3.90659723e-07 
       3.03841079e-08       2.18162196e-07      -3.90659790e-07 
       1.07593404e-07       2.18162217e-07      -3.90053816e-07 
      -3.06918720e-08       2.17556169e-07      -3.90053750e-07 
      -1.07901168e-07       2.17556148e-07      -3.90659723e-07 
       3.03841079e-08       2.18162196e-07      -3.90659790e-07 
       1.07593404e-07       2.18162217e-07      -3.90053816e-07 
      -3.79634338e-08       3.37828882e-07      -6.05492156e-07 
      -1.33528355e-07       3.37828850e-07      -6.06249613e-07 
       3.75783664e-08       3.38586420e-07      -6.06249715e-07 
       1.33143288e-07       3.38586452e-07      -6.05492258e-07 
      -3.79634338e-08       3.37828882e-07      -6.05492156e-07 
      -1.33528355e-07       3.37828850e-07      -6.06249613e-07 
       3.75783664e-08       3.38586420e-07      -6.06249715e-07 
       1.33143288e-07       3.38586452e-07      -6.05492258e-07 
      -4.50744306e-08       4.83400348e-07      -8.66151022e-07 
      -1.58616298e-07       4.83400303e-07      -8.67059958e-07 
       4.46119202e-08       4.84309400e-07      -8.67060102e-07 
       1.58153787e-07       4.84309445e-07      -8.66151166e-07 
      -4.50744306e-08       4.83400348e-07      -8.66151022e-07 
      -1.58616298e-07       4.83400303e-07      -8.67059958e-07 
       4.46119202e-08       4.84309400e-07      -8.67060102e-07 
       1.58153787e-07       4.84309445e-07      -8.66151166e-07 
      -5.20248602e-08       6.53743211e-07      -1.17105558e-06 
      -1.83164993e-07       6.53743152e-07      -1.17211599e-06 
       5.14847713e-08       6.54803778e-07      -1.17211619e-06 
       1.82624905e-07       6.54803837e-07      -1.17105577e-06 
      -5.20248602e-08       6.53743211e-07      -1.17105558e-06 
      -1.83164993e-07       6.53743152e-07      -1.17211599e-06 
       5.14847713e-08       6.54803778e-07      -1.17211619e-06 
       1.82624905e-07       6.54803837e-07      -1.17105577e-06 
      -5.88147215e-08       8.48330115e-07      -1.51923107e-06 
      -2.07174442e-07       8.48330038e-07      -1.52044296e-06 
       5.81969211e-08       8.49542197e-07      -1.52044320e-06 
       2.06556641e-07       8.49542273e-07      -1.51923132e-06 
      -5.88147215e-08       8.48330115e-07      -1.51923107e-06 
      -2.07174442e-07       8.48330038e-07      -1.52044296e-06 
       5.81969211e-08       8.49542197e-07      -1.52044320e-06 
       2.06556641e-07       8.49542273e-07      -1.51923132e-06 
      -6.54440127e-08       1.06663370e-06      -1.90970273e-06 
      -2.30644640e-07       1.06663361e-06      -1.91106609e-06 
       6.47483709e-08       1.06799730e-06      -1.91106639e-06 
       2.29948998e-07       1.06799739e-06      -1.90970304e-06 
      -6.54440127e-08       1.06663370e-06      -1.90970273e-06 
      -2.30644640e-07       1.06663361e-06      -1.91106609e-06 
       6.47483709e-08       1.06799730e-06      -1.91106639e-06 
       2.29948998e-07       1.06799739e-06      -1.90970304e-06 
      -7.19127327e-08       1.30812661e-06      -2.34149579e-06 
      -2.53575588e-07       1.30812650e-06      -2.34301062e-06 
       7.11391213e-08       1.30964173e-06      -2.34301098e-06 
       2.52801977e-07       1.30964184e-06      -2.34149616e-06 
      -7.19127327e-08       1.30812661e-06      -2.34149579e-06 
      -2.53575588e-07       1.30812650e-06      -2.34301062e-06 
       7.11391217e-08       1.30964173e-06      -2.34301098e-06 
       2.52801977e-07       1.30964184e-06      -2.34149616e-06 
      -7.82173339e-08       1.57229894e-06      -2.81366332e-06 
      -2.75983979e-07       1.57229881e-06      -2.81531363e-06 
       7.73942670e-08       1.57394960e-06      -2.81531407e-06 
       2.75160912e-07       1.57394974e-06      -2.81366376e-06 
      -7.82173339e-08       1.57229894e-06      -2.81366332e-06 
      -2.75983979e-07       1.57229881e-06      -2.81531363e-06 
       7.73942670e-08       1.57394960e-06      -2.81531407e-06 
       2.75160912e-07       1.57394974e-06      -2.81366376e-06 
      -8.43813788e-08       1.85866187e-06      -3.32531646e-06 
      -2.97913062e-07       1.85866172e-06      -3.32710225e-06 
       8.35085254e-08       1.86044807e-06      -3.32710275e-06 
       2.97040209e-07       1.86044823e-06      -3.32531696e-06 
      -8.43813788e-08       1.85866187e-06      -3.32531646e-06 
      -2.97913062e-07       1.85866172e-06      -3.32710225e-06 
       8.35085254e-08       1.86044807e-06      -3.32710275e-06 
       2.97040209e-07       1.86044823e-06      -3.32531696e-06 
      -9.04048645e-08       2.16674366e-06      -3.87559149e-06 
      -3.19362836e-07       2.16674347e-06      -3.87751276e-06 
       8.94818988e-08       2.16866540e-06      -3.87751334e-06 
       3.18439870e-07       2.16866558e-06      -3.87559207e-06 
      -9.04048645e-08       2.16674366e-06      -3.87559149e-06 
      -3.19362836e-07       2.16674347e-06      -3.87751276e-06 
       8.94818988e-08       2.16866540e-06      -3.87751334e-06 
       3.18439870e-07       2.16866558e-06      -3.87559207e-06 
      -9.62877871e-08       2.49607254e-06      -4.46362474e-06 
      -3.40333295e-07       2.49607233e-06      -4.46568149e-06 
       9.53143919e-08       2.49812982e-06      -4.46568215e-06 
       3.39359900e-07       2.49813003e-06      -4.46362540e-06 
      -9.62877871e-08       2.49607254e-06      -4.46362474e-06 
      -3.40333295e-07       2.49607233e-06      -4.46568149e-06 
       9.53143919e-08       2.49812982e-06      -4.46568215e-06 
       3.39359900e-07       2.49813003e-06      -4.46362540e-06 
      -1.02030144e-07       2.84617676e-06      -5.08855250e-06 
      -3.60824438e-07       2.84617653e-06      -5.09074472e-06 
       1.01006008e-07       2.84836959e-06      -5.09074546e-06 
       3.59800302e-07       2.84836982e-06      -5.08855324e-06 
      -1.02030144e-07       2.84617676e-06      -5.08855250e-06 
      -3.60824438e-07       2.84617653e-06      -5.09074472e-06 
       1.01006008e-07       2.84836959e-06      -5.09074546e-06 
       3.59800302e-07       2.84836982e-06      -5.08855324e-06 
      -1.07631930e-07       3.21658459e-06      -5.74951107e-06 
      -3.80836259e-07       3.21658433e-06      -5.75183877e-06 
       1.06556751e-07       3.21891296e-06      -5.75183960e-06 
       3.79761079e-07       3.21891322e-06      -5.74951190e-06 
      -1.07631930e-07       3.21658459e-06      -5.74951107e-06 
      -3.80836259e-07       3.21658433e-06      -5.75183877e-06 
       1.06556751e-07       3.21891296e-06      -5.75183960e-06 
       3.79761079e-07       3.21891322e-06      -5.74951190e-06 
      -1.13093142e-07       3.60682425e-06      -6.44563677e-06 
      -4.00368756e-07       3.60682397e-06      -6.44809995e-06 
       1.11966624e-07       3.60928817e-06      -6.44810086e-06 
       3.99242237e-07       3.60928846e-06      -6.44563769e-06 
      -1.13093142e-07       3.60682425e-06      -6.44563677e-06 
      -4.00368756e-07       3.60682397e-06      -6.44809995e-06 
       1.11966624e-07       3.60928817e-06      -6.44810086e-06 
       3.99242237e-07       3.60928846e-06      -6.44563769e-06 
      -1.18413778e-07       4.01642401e-06      -7.17606590e-06 
      -4.19421924e-07       4.01642370e-06      -7.17866455e-06 
       1.17235631e-07       4.01902347e-06      -7.17866555e-06 
       4.18243778e-07       4.01902379e-06      -7.17606690e-06 
      -1.18413778e-07       4.01642401e-06      -7.17606590e-06 
      -4.19421924e-07       4.01642370e-06      -7.17866455e-06 
       1.17235631e-07       4.01902347e-06      -7.17866555e-06 
       4.18243778e-07       4.01902379e-06      -7.17606690e-06 
      -1.23593832e-07       4.44491211e-06      -7.93993475e-06 
      -4.37995761e-07       4.44491177e-06      -7.94266888e-06 
       1.22363776e-07       4.44764712e-06      -7.94266997e-06 
       4.36765704e-07       4.44764746e-06      -7.93993585e-06 
      -1.23593832e-07       4.44491211e-06      -7.93993475e-06 
      -4.37995761e-07       4.44491177e-06      -7.94266888e-06 
       1.22363776e-07       4.44764712e-06      -7.94266997e-06 
       4.36765704e-07       4.44764746e-06      -7.93993585e-06 
      -1.28633302e-07       4.89181680e-06      -8.73637965e-06 
      -4.56090262e-07       4.89181643e-06      -8.73924924e-06 
       1.27351061e-07       4.89468735e-06      -8.73925042e-06 
       4.54808021e-07       4.89468772e-06      -8.73638083e-06 
      -1.28633302e-07       4.89181680e-06      -8.73637965e-06 
      -4.56090262e-07       4.89181643e-06      -8.73924924e-06 
       1.27351061e-07       4.89468735e-06      -8.73925042e-06 
       4.54808021e-07       4.89468772e-06      -8.73638083e-06 
      -1.33532248e-07       5.35668362e-06      -9.56456380e-06 
      -4.73725464e-07       5.35668322e-06      -9.56755290e-06 
       1.32217524e-07       5.35967376e-06      -9.56755417e-06 
       4.72410740e-07       5.35967416e-06      -9.56456507e-06 
      -1.33532248e-07       5.35668362e-06      -9.56456380e-06 
      -4.73725464e-07       5.35668322e-06      -9.56755290e-06 
       1.32217524e-07       5.35967376e-06      -9.56755417e-06 
       4.72410740e-07       5.35967416e-06      -9.56456507e-06 
      -1.38309503e-07       5.83907891e-06      -1.04237062e-05 
      -4.90939811e-07       5.83907848e-06      -1.04268148e-05 
       1.36961904e-07       5.84218863e-06      -1.04268162e-05 
       4.89592211e-07       5.84218906e-06      -1.04237076e-05 
      -1.38309503e-07       5.83907891e-06      -1.04237062e-05 
      -4.90939811e-07       5.83907848e-06      -1.04268148e-05 
       1.36961904e-07       5.84218863e-06      -1.04268162e-05 
       4.89592211e-07       5.84218906e-06      -1.04237076e-05 
      -1.42965059e-07       6.33858605e-06      -1.13130507e-05 
      -5.07733297e-07       6.33858558e-06      -1.13162788e-05 
       1.41584206e-07       6.34181535e-06      -1.13162803e-05 
       5.06352443e-07       6.34181581e-06      -1.13130522e-05 
      -1.42965059e-07       6.33858605e-06      -1.13130507e-05 
      -5.07733297e-07       6.33858558e-06      -1.13162788e-05 
       1.41584206e-07       6.34181535e-06      -1.13162803e-05 
       5.06352443e-07       6.34181581e-06      -1.13130522e-05 
      -1.47498915e-07       6.85478841e-06      -1.22318413e-05 
      -5.24105920e-07       6.85478792e-06      -1.22351889e-05 
       1.46084432e-07       6.85813729e-06      -1.22351905e-05 
       5.22691436e-07       6.85813779e-06      -1.22318428e-05 
      -1.47498915e-07       6.85478841e-06      -1.22318413e-05 
      -5.24105920e-07       6.85478792e-06      -1.22351889e-05 
       1.46084432e-07       6.85813729e-06      -1.22351905e-05 
       5.22691436e-07       6.85813779e-06      -1.22318428e-05 
      -1.51911064e-07       7.38726938e-06      -1.31793218e-05 
      -5.40057672e-07       7.38726885e-06      -1.31827889e-05 
       1.50462589e-07       7.39073784e-06      -1.31827905e-05 
       5.38609198e-07       7.39073837e-06      -1.31793234e-05 
      -1.51911064e-07       7.38726938e-06      -1.31793218e-05 
      -5.40057672e-07       7.38726885e-06      -1.31827889e-05 
       1.50462589e-07       7.39073784e-06      -1.31827905e-05 
       5.38609198e-07       7.39073837e-06      -1.31793234e-05 
      -1.56201502e-07       7.93561233e-06      -1.41547360e-05 
      -5.55588552e-07       7.93561178e-06      -1.41583227e-05 
       1.54718682e-07       7.93920038e-06      -1.41583244e-05 
       5.54105733e-07       7.93920094e-06      -1.41547378e-05 
      -1.56201502e-07       7.93561233e-06      -1.41547360e-05 
      -5.55588552e-07       7.93561178e-06      -1.41583227e-05 
       1.54718682e-07       7.93920038e-06      -1.41583244e-05 
       5.54105733e-07       7.93920094e-06      -1.41547378e-05 
      -1.60370223e-07       8.49940066e-06      -1.51573280e-05 
      -5.70698552e-07       8.49940007e-06      -1.51610342e-05 
       1.58852715e-07       8.50310829e-06      -1.51610360e-05 
       5.69181045e-07       8.50310888e-06      -1.51573299e-05 
      -1.60370223e-07       8.49940066e-06      -1.51573280e-05 
      -5.70698552e-07       8.49940007e-06      -1.51610342e-05 
       1.58852715e-07       8.50310829e-06      -1.51610360e-05 
       5.69181045e-07       8.50310888e-06      -1.51573299e-05 
      -1.64417222e-07       9.07821773e-06      -1.61863416e-05 
      -5.85387668e-07       9.07821711e-06      -1.61901673e-05 
       1.62864694e-07       9.08204494e-06      -1.61901692e-05 
       5.83835140e-07       9.08204556e-06      -1.61863436e-05 
      -1.64417222e-07       9.07821773e-06      -1.61863416e-05 
      -5.85387668e-07       9.07821711e-06      -1.61901673e-05 
       1.62864694e-07       9.08204494e-06      -1.61901692e-05 
       5.83835140e-07       9.08204556e-06      -1.61863436e-05 
      -1.68342497e-07       9.67164692e-06      -1.72410207e-05 
      -5.99655896e-07       9.67164627e-06      -1.72449658e-05 
       1.66754622e-07       9.67559372e-06      -1.72449679e-05 
       5.98068021e-07       9.67559437e-06      -1.72410227e-05 
      -1.68342497e-07       9.67164692e-06      -1.72410207e-05 
      -5.99655896e-07       9.67164627e-06      -1.72449658e-05 
       1.66754622e-07       9.67559372e-06      -1.72449679e-05 
       5.98068021e-07       9.67559437e-06      -1.72410227e-05 
      -1.72146041e-07       1.02792716e-05      -1.83206092e-05 
      -6.13503232e-07       1.02792709e-05      -1.83246738e-05 
       1.70522503e-07       1.02833380e-05      -1.83246760e-05 
       6.11879694e-07       1.02833387e-05      -1.83206113e-05 
      -1.72146041e-07       1.02792716e-05      -1.83206092e-05 
      -6.13503232e-07       1.02792709e-05      -1.83246738e-05 
       1.70522503e-07       1.02833380e-05      -1.83246760e-05 
       6.11879694e-07       1.02833387e-05      -1.83206113e-05 
      -1.75830740e-07       1.09006924e-05      -1.94243771e-05 
      -6.26952351e-07       1.09006917e-05      -1.94285453e-05 
       1.74184415e-07       1.09048624e-05      -1.94285475e-05 
       6.25306027e-07       1.09048631e-05      -1.94243793e-05 
      -1.75830740e-07       1.09006924e-05      -1.94243771e-05 
      -6.26952351e-07       1.09006917e-05      -1.94285453e-05 
       1.74184415e-07       1.09048624e-05      -1.94285475e-05 
       6.25306027e-07       1.09048631e-05      -1.94243793e-05 
      -1.79411749e-07       1.15355304e-05      -2.05516487e-05 
      -6.40037994e-07       1.15355297e-05      -2.05559204e-05 
       1.77742264e-07       1.15398041e-05      -2.05559228e-05 
       6.38368509e-07       1.15398048e-05      -2.05516510e-05 
      -1.79411749e-07       1.15355304e-05      -2.05516487e-05 
      -6.40037994e-07       1.15355297e-05      -2.05559204e-05 
       1.77742264e-07       1.15398041e-05      -2.05559228e-05 
       6.38368509e-07       1.15398048e-05      -2.05516510e-05 
      -1.82889059e-07       1.21834239e-05      -2.17017728e-05 
      -6.52760153e-07       1.21834231e-05      -2.17061481e-05 
       1.81196053e-07       1.21878012e-05      -2.17061505e-05 
       6.51067148e-07       1.21878019e-05      -2.17017752e-05 
      -1.82889059e-07       1.21834239e-05      -2.17017728e-05 
      -6.52760153e-07       1.21834231e-05      -2.17061481e-05 
       1.81196053e-07       1.21878012e-05      -2.17061505e-05 
       6.51067148e-07       1.21878019e-05      -2.17017752e-05 
      -1.86262669e-07       1.28440111e-05      -2.28740983e-05 
      -6.65118828e-07       1.28440103e-05      -2.28785772e-05 
       1.84545788e-07       1.28484920e-05      -2.28785797e-05 
       6.63401946e-07       1.28484928e-05      -2.28741008e-05 
      -1.86262669e-07       1.28440111e-05      -2.28740983e-05 
      -6.65118828e-07       1.28440103e-05      -2.28785772e-05 
       1.84545788e-07       1.28484920e-05      -2.28785797e-05 
       6.63401946e-07       1.28484928e-05      -2.28741008e-05 
      -1.89532573e-07       1.35169301e-05      -2.40679741e-05 
      -6.77114009e-07       1.35169293e-05      -2.40725566e-05 
       1.87791473e-07       1.35215147e-05      -2.40725592e-05 
       6.75372910e-07       1.35215155e-05      -2.40679767e-05 
      -1.89532573e-07       1.35169301e-05      -2.40679741e-05 
      -6.77114009e-07       1.35169293e-05      -2.40725566e-05 
       1.87791473e-07       1.35215147e-05      -2.40725592e-05 
       6.75372910e-07       1.35215155e-05      -2.40679767e-05 
      -1.92698765e-07       1.42018193e-05      -2.52827492e-05 
      -6.88745695e-07       1.42018184e-05      -2.52874352e-05 
       1.90933115e-07       1.42065075e-05      -2.52874378e-05 
       6.86980044e-07       1.42065083e-05      -2.52827519e-05 
      -1.92698765e-07       1.42018193e-05      -2.52827492e-05 
      -6.88745695e-07       1.42018184e-05      -2.52874352e-05 
       1.90933115e-07       1.42065075e-05      -2.52874378e-05 
       6.86980044e-07       1.42065083e-05      -2.52827519e-05 
      -1.95761240e-07       1.48983168e-05      -2.65177723e-05 
      -7.00013878e-07       1.48983159e-05      -2.65225618e-05 
       1.93970718e-07       1.49031086e-05      -2.65225646e-05 
       6.98223355e-07       1.49031095e-05      -2.65177751e-05 
      -1.95761240e-07       1.48983168e-05      -2.65177723e-05 
      -7.00013878e-07       1.48983159e-05      -2.65225618e-05 
       1.93970718e-07       1.49031086e-05      -2.65225646e-05 
       6.98223355e-07       1.49031095e-05      -2.65177751e-05 
      -1.98719992e-07       1.56060609e-05      -2.77723924e-05 
      -7.10918552e-07       1.56060599e-05      -2.77772855e-05 
       1.96904288e-07       1.56109563e-05      -2.77772884e-05 
       7.09102847e-07       1.56109572e-05      -2.77723953e-05 
      -1.98719992e-07       1.56060609e-05      -2.77723924e-05 
      -7.10918552e-07       1.56060599e-05      -2.77772855e-05 