# vtk DataFile Version 2.0
./output/onsasExample_BladeCantileverBeamPitch_windVel3DDynamic 3D/onsasExample_BladeCantileverBeamPitch_windVel3DDynamic 3D_0370.vtk
ASCII
DATASET UNSTRUCTURED_GRID

POINTS 800 float
       2.251082e-23      -7.180703e-02      -7.180703e-02 
       2.888081e-23       7.180703e-02      -7.180703e-02 
      -2.251082e-23       7.180703e-02       7.180703e-02 
      -2.888081e-23      -7.180703e-02       7.180703e-02 
       2.000000e-01      -7.180702e-02      -7.180706e-02 
       2.000000e-01       7.180705e-02      -7.180706e-02 
       2.000000e-01       7.180705e-02       7.180701e-02 
       2.000000e-01      -7.180702e-02       7.180701e-02 
       2.000000e-01      -7.180702e-02      -7.180706e-02 
       2.000000e-01       7.180705e-02      -7.180706e-02 
       2.000000e-01       7.180705e-02       7.180701e-02 
       2.000000e-01      -7.180702e-02       7.180701e-02 
       4.000000e-01      -7.180698e-02      -7.180714e-02 
       3.999999e-01       7.180709e-02      -7.180714e-02 
       4.000000e-01       7.180709e-02       7.180693e-02 
       4.000001e-01      -7.180698e-02       7.180693e-02 
       4.000000e-01      -7.180698e-02      -7.180714e-02 
       3.999999e-01       7.180709e-02      -7.180714e-02 
       4.000000e-01       7.180709e-02       7.180693e-02 
       4.000001e-01      -7.180698e-02       7.180693e-02 
       6.000000e-01      -7.180691e-02      -7.180727e-02 
       5.999999e-01       7.180715e-02      -7.180727e-02 
       6.000000e-01       7.180715e-02       7.180680e-02 
       6.000001e-01      -7.180691e-02       7.180680e-02 
       6.000000e-01      -7.180691e-02      -7.180727e-02 
       5.999999e-01       7.180715e-02      -7.180727e-02 
       6.000000e-01       7.180715e-02       7.180680e-02 
       6.000001e-01      -7.180691e-02       7.180680e-02 
       8.000000e-01      -7.180682e-02      -7.180745e-02 
       7.999999e-01       7.180725e-02      -7.180745e-02 
       8.000000e-01       7.180725e-02       7.180662e-02 
       8.000001e-01      -7.180682e-02       7.180662e-02 
       8.000000e-01      -7.180682e-02      -7.180745e-02 
       7.999999e-01       7.180725e-02      -7.180745e-02 
       8.000000e-01       7.180725e-02       7.180662e-02 
       8.000001e-01      -7.180682e-02       7.180662e-02 
       1.000000e+00      -7.180670e-02      -7.180767e-02 
       9.999999e-01       7.180737e-02      -7.180768e-02 
       1.000000e+00       7.180737e-02       7.180639e-02 
       1.000000e+00      -7.180670e-02       7.180639e-02 
       1.000000e+00      -7.180670e-02      -7.180767e-02 
       9.999999e-01       7.180737e-02      -7.180768e-02 
       1.000000e+00       7.180737e-02       7.180639e-02 
       1.000000e+00      -7.180670e-02       7.180639e-02 
       1.200000e+00      -7.180656e-02      -7.180795e-02 
       1.200000e+00       7.180751e-02      -7.180795e-02 
       1.200000e+00       7.180751e-02       7.180611e-02 
       1.200000e+00      -7.180656e-02       7.180612e-02 
       1.200000e+00      -7.180656e-02      -7.180795e-02 
       1.200000e+00       7.180751e-02      -7.180795e-02 
       1.200000e+00       7.180751e-02       7.180611e-02 
       1.200000e+00      -7.180656e-02       7.180612e-02 
       1.400000e+00      -7.180639e-02      -7.180827e-02 
       1.400000e+00       7.180768e-02      -7.180828e-02 
       1.400000e+00       7.180768e-02       7.180579e-02 
       1.400000e+00      -7.180639e-02       7.180579e-02 
       1.400000e+00      -7.180639e-02      -7.180827e-02 
       1.400000e+00       7.180768e-02      -7.180828e-02 
       1.400000e+00       7.180768e-02       7.180579e-02 
       1.400000e+00      -7.180639e-02       7.180579e-02 
       1.600000e+00      -7.180620e-02      -7.180864e-02 
       1.600000e+00       7.180787e-02      -7.180864e-02 
       1.600000e+00       7.180787e-02       7.180542e-02 
       1.600000e+00      -7.180620e-02       7.180542e-02 
       1.600000e+00      -7.180620e-02      -7.180864e-02 
       1.600000e+00       7.180787e-02      -7.180864e-02 
       1.600000e+00       7.180787e-02       7.180542e-02 
       1.600000e+00      -7.180620e-02       7.180542e-02 
       1.800000e+00      -7.180599e-02      -7.180906e-02 
       1.800000e+00       7.180808e-02      -7.180906e-02 
       1.800000e+00       7.180808e-02       7.180501e-02 
       1.800000e+00      -7.180598e-02       7.180501e-02 
       1.800000e+00      -7.180599e-02      -7.180906e-02 
       1.800000e+00       7.180808e-02      -7.180906e-02 
       1.800000e+00       7.180808e-02       7.180501e-02 
       1.800000e+00      -7.180598e-02       7.180501e-02 
       2.000000e+00      -7.180575e-02      -7.180952e-02 
       2.000000e+00       7.180832e-02      -7.180952e-02 
       2.000000e+00       7.180832e-02       7.180455e-02 
       2.000000e+00      -7.180575e-02       7.180455e-02 
       2.000000e+00      -7.180575e-02      -7.180952e-02 
       2.000000e+00       7.180832e-02      -7.180952e-02 
       2.000000e+00       7.180832e-02       7.180455e-02 
       2.000000e+00      -7.180575e-02       7.180455e-02 
       2.200000e+00      -7.180549e-02      -7.181002e-02 
       2.200000e+00       7.180858e-02      -7.181002e-02 
       2.200000e+00       7.180858e-02       7.180405e-02 
       2.200000e+00      -7.180549e-02       7.180405e-02 
       2.200000e+00      -7.180549e-02      -7.181002e-02 
       2.200000e+00       7.180858e-02      -7.181002e-02 
       2.200000e+00       7.180858e-02       7.180405e-02 
       2.200000e+00      -7.180549e-02       7.180405e-02 
       2.400000e+00      -7.180521e-02      -7.181056e-02 
       2.400000e+00       7.180886e-02      -7.181056e-02 
       2.400000e+00       7.180886e-02       7.180350e-02 
       2.400000e+00      -7.180521e-02       7.180351e-02 
       2.400000e+00      -7.180521e-02      -7.181056e-02 
       2.400000e+00       7.180886e-02      -7.181056e-02 
       2.400000e+00       7.180886e-02       7.180350e-02 
       2.400000e+00      -7.180521e-02       7.180351e-02 
       2.600000e+00      -7.180491e-02      -7.181114e-02 
       2.600000e+00       7.180916e-02      -7.181115e-02 
       2.600000e+00       7.180916e-02       7.180292e-02 
       2.600000e+00      -7.180490e-02       7.180292e-02 
       2.600000e+00      -7.180491e-02      -7.181114e-02 
       2.600000e+00       7.180916e-02      -7.181115e-02 
       2.600000e+00       7.180916e-02       7.180292e-02 
       2.600000e+00      -7.180490e-02       7.180292e-02 
       2.800000e+00      -7.180458e-02      -7.181177e-02 
       2.800000e+00       7.180948e-02      -7.181177e-02 
       2.800000e+00       7.180949e-02       7.180229e-02 
       2.800000e+00      -7.180458e-02       7.180230e-02 
       2.800000e+00      -7.180458e-02      -7.181177e-02 
       2.800000e+00       7.180948e-02      -7.181177e-02 
       2.800000e+00       7.180949e-02       7.180229e-02 
       2.800000e+00      -7.180458e-02       7.180230e-02 
       3.000000e+00      -7.180424e-02      -7.181243e-02 
       3.000000e+00       7.180983e-02      -7.181244e-02 
       3.000000e+00       7.180983e-02       7.180163e-02 
       3.000000e+00      -7.180424e-02       7.180163e-02 
       3.000000e+00      -7.180424e-02      -7.181243e-02 
       3.000000e+00       7.180983e-02      -7.181244e-02 
       3.000000e+00       7.180983e-02       7.180163e-02 
       3.000000e+00      -7.180424e-02       7.180163e-02 
       3.200000e+00      -7.180388e-02      -7.181314e-02 
       3.200000e+00       7.181019e-02      -7.181314e-02 
       3.200000e+00       7.181019e-02       7.180093e-02 
       3.200000e+00      -7.180387e-02       7.180093e-02 
       3.200000e+00      -7.180388e-02      -7.181314e-02 
       3.200000e+00       7.181019e-02      -7.181314e-02 
       3.200000e+00       7.181019e-02       7.180093e-02 
       3.200000e+00      -7.180387e-02       7.180093e-02 
       3.400000e+00      -7.180349e-02      -7.181388e-02 
       3.400000e+00       7.181057e-02      -7.181388e-02 
       3.400000e+00       7.181058e-02       7.180019e-02 
       3.400000e+00      -7.180349e-02       7.180019e-02 
       3.400000e+00      -7.180349e-02      -7.181388e-02 
       3.400000e+00       7.181057e-02      -7.181388e-02 
       3.400000e+00       7.181058e-02       7.180019e-02 
       3.400000e+00      -7.180349e-02       7.180019e-02 
       3.600000e+00      -7.180309e-02      -7.181465e-02 
       3.600000e+00       7.181097e-02      -7.181465e-02 
       3.600000e+00       7.181098e-02       7.179941e-02 
       3.600000e+00      -7.180309e-02       7.179941e-02 
       3.600000e+00      -7.180309e-02      -7.181465e-02 
       3.600000e+00       7.181097e-02      -7.181465e-02 
       3.600000e+00       7.181098e-02       7.179941e-02 
       3.600000e+00      -7.180309e-02       7.179941e-02 
       3.800000e+00      -7.180267e-02      -7.181546e-02 
       3.800000e+00       7.181139e-02      -7.181547e-02 
       3.800000e+00       7.181140e-02       7.179860e-02 
       3.800000e+00      -7.180267e-02       7.179860e-02 
       3.800000e+00      -7.180267e-02      -7.181546e-02 
       3.800000e+00       7.181139e-02      -7.181547e-02 
       3.800000e+00       7.181140e-02       7.179860e-02 
       3.800000e+00      -7.180267e-02       7.179860e-02 
       4.000000e+00      -7.180223e-02      -7.181631e-02 
       4.000000e+00       7.181183e-02      -7.181631e-02 
       4.000000e+00       7.181184e-02       7.179775e-02 
       4.000000e+00      -7.180223e-02       7.179776e-02 
       4.000000e+00      -7.180223e-02      -7.181631e-02 
       4.000000e+00       7.181183e-02      -7.181631e-02 
       4.000000e+00       7.181184e-02       7.179775e-02 
       4.000000e+00      -7.180223e-02       7.179776e-02 
       4.200000e+00      -7.180178e-02      -7.181719e-02 
[...]
POINT_DATA       800 
VECTORS Displacements float
       2.25108200e-23       0.00000000e+00       1.38777878e-17 
       2.88808120e-23       1.38777878e-17       0.00000000e+00 
      -2.25108200e-23       0.00000000e+00      -1.38777878e-17 
      -2.88808120e-23      -1.38777878e-17       0.00000000e+00 
      -9.13666107e-09       1.35710494e-08      -2.62773996e-08 
      -2.86720947e-08       1.35710481e-08      -2.64285585e-08 
       9.05353784e-09       1.37222121e-08      -2.64285635e-08 
       2.85889715e-08       1.37222135e-08      -2.62774046e-08 
      -9.13666107e-09       1.35710494e-08      -2.62773996e-08 
      -2.86720947e-08       1.35710481e-08      -2.64285585e-08 
       9.05353784e-09       1.37222121e-08      -2.64285635e-08 
       2.85889715e-08       1.37222135e-08      -2.62774046e-08 
      -1.80996764e-08       5.40841554e-08      -1.04586976e-07 
      -5.67922616e-08       5.40841502e-08      -1.04889289e-07 
       1.79332661e-08       5.43864832e-08      -1.04889308e-07 
       5.66258512e-08       5.43864885e-08      -1.04586995e-07 
      -1.80996764e-08       5.40841554e-08      -1.04586976e-07 
      -5.67922616e-08       5.40841502e-08      -1.04889289e-07 
       1.79332661e-08       5.43864832e-08      -1.04889308e-07 
       5.66258512e-08       5.43864885e-08      -1.04586995e-07 
      -2.68890445e-08       1.21012514e-07      -2.33918052e-07 
      -8.43604990e-08       1.21012503e-07      -2.34371514e-07 
       2.66391864e-08       1.21466009e-07      -2.34371557e-07 
       8.41106409e-08       1.21466021e-07      -2.33918095e-07 
      -2.68890445e-08       1.21012514e-07      -2.33918052e-07 
      -8.43604990e-08       1.21012503e-07      -2.34371514e-07 
       2.66391864e-08       1.21466009e-07      -2.34371557e-07 
       8.41106409e-08       1.21466021e-07      -2.33918095e-07 
      -3.55047637e-08       2.13829322e-07      -4.13259950e-07 
      -1.11376805e-07       2.13829302e-07      -4.13864557e-07 
       3.51713003e-08       2.14433987e-07      -4.13864632e-07 
       1.11043342e-07       2.14434007e-07      -4.13260024e-07 
      -3.55047637e-08       2.13829322e-07      -4.13259950e-07 
      -1.11376805e-07       2.13829302e-07      -4.13864557e-07 
       3.51713003e-08       2.14433987e-07      -4.13864632e-07 
       1.11043342e-07       2.14434007e-07      -4.13260024e-07 
      -4.39468323e-08       3.32007775e-07      -6.41601992e-07 
      -1.37841179e-07       3.32007745e-07      -6.42357741e-07 
       4.35296093e-08       3.32763611e-07      -6.42357855e-07 
       1.37423956e-07       3.32763642e-07      -6.41602107e-07 
      -4.39468323e-08       3.32007775e-07      -6.41601992e-07 
      -1.37841179e-07       3.32007745e-07      -6.42357741e-07 
       4.35296093e-08       3.32763611e-07      -6.42357855e-07 
       1.37423956e-07       3.32763642e-07      -6.41602107e-07 
      -5.22152490e-08       4.75021070e-07      -9.17933503e-07 
      -1.63753619e-07       4.75021027e-07      -9.18840388e-07 
       5.17141152e-08       4.75928079e-07      -9.18840550e-07 
       1.63252485e-07       4.75928123e-07      -9.17933665e-07 
      -5.22152490e-08       4.75021070e-07      -9.17933503e-07 
      -1.63753619e-07       4.75021027e-07      -9.18840388e-07 
       5.17141152e-08       4.75928079e-07      -9.18840550e-07 
       1.63252485e-07       4.75928123e-07      -9.17933665e-07 
      -6.03100117e-08       6.42342403e-07      -1.24124380e-06 
      -1.89114122e-07       6.42342345e-07      -1.24230182e-06 
       5.97248195e-08       6.43400587e-07      -1.24230204e-06 
       1.88528930e-07       6.43400645e-07      -1.24124402e-06 
      -6.03100117e-08       6.42342403e-07      -1.24124380e-06 
      -1.89114122e-07       6.42342345e-07      -1.24230182e-06 
       5.97248195e-08       6.43400587e-07      -1.24230204e-06 
       1.88528930e-07       6.43400645e-07      -1.24124402e-06 
      -6.82311194e-08       8.33444969e-07      -1.61052222e-06 
      -2.13922688e-07       8.33444895e-07      -1.61173137e-06 
       6.75617238e-08       8.34654330e-07      -1.61173164e-06 
       2.13253292e-07       8.34654404e-07      -1.61052249e-06 
      -6.82311194e-08       8.33444969e-07      -1.61052222e-06 
      -2.13922688e-07       8.33444895e-07      -1.61173137e-06 
       6.75617238e-08       8.34654330e-07      -1.61173164e-06 
       2.13253292e-07       8.34654404e-07      -1.61052249e-06 
      -7.59785699e-08       1.04780197e-06      -2.02475807e-06 
      -2.38179315e-07       1.04780187e-06      -2.02611834e-06 
       7.52248299e-08       1.04916250e-06      -2.02611869e-06 
       2.37425575e-07       1.04916260e-06      -2.02475841e-06 
      -7.59785699e-08       1.04780197e-06      -2.02475807e-06 
      -2.38179315e-07       1.04780187e-06      -2.02611834e-06 
       7.52248299e-08       1.04916250e-06      -2.02611869e-06 
       2.37425575e-07       1.04916260e-06      -2.02475841e-06 
      -8.35523624e-08       1.28488659e-06      -2.48294068e-06 
      -2.61884002e-07       1.28488648e-06      -2.48445208e-06 
       8.27141386e-08       1.28639831e-06      -2.48445249e-06 
       2.61045777e-07       1.28639842e-06      -2.48294109e-06 
      -8.35523624e-08       1.28488659e-06      -2.48294068e-06 
      -2.61884002e-07       1.28488648e-06      -2.48445208e-06 
       8.27141386e-08       1.28639831e-06      -2.48445249e-06 
       2.61045778e-07       1.28639842e-06      -2.48294109e-06 
      -9.09474940e-08       1.54418949e-06      -2.98408585e-06 
      -2.85051993e-07       1.54418936e-06      -2.98573240e-06 
       9.00536095e-08       1.54583642e-06      -2.98573289e-06 
       2.84158108e-07       1.54583655e-06      -2.98408634e-06 
      -9.09474940e-08       1.54418949e-06      -2.98408585e-06 
      -2.85051993e-07       1.54418936e-06      -2.98573240e-06 
       9.00536095e-08       1.54583642e-06      -2.98573289e-06 
       2.84158108e-07       1.54583655e-06      -2.98408634e-06 
      -9.81870487e-08       1.82522238e-06      -3.52726382e-06 
      -3.07726015e-07       1.82522223e-06      -3.52904553e-06 
       9.72371419e-08       1.82700452e-06      -3.52904610e-06 
       3.06776108e-07       1.82700468e-06      -3.52726439e-06 
      -9.81870487e-08       1.82522238e-06      -3.52726382e-06 
      -3.07726015e-07       1.82522223e-06      -3.52904553e-06 
       9.72371419e-08       1.82700452e-06      -3.52904610e-06 
       3.06776108e-07       1.82700468e-06      -3.52726439e-06 
      -1.05271023e-07       2.12751401e-06      -4.11156952e-06 
      -3.29906066e-07       2.12751383e-06      -4.11348638e-06 
       1.04264740e-07       2.12943137e-06      -4.11348704e-06 
       3.28899782e-07       2.12943155e-06      -4.11157018e-06 
      -1.05271023e-07       2.12751401e-06      -4.11156952e-06 
      -3.29906066e-07       2.12751383e-06      -4.11348638e-06 
       1.04264740e-07       2.12943137e-06      -4.11348704e-06 
       3.28899782e-07       2.12943155e-06      -4.11157018e-06 
      -1.12199413e-07       2.45059313e-06      -4.73609788e-06 
      -3.51592140e-07       2.45059293e-06      -4.73814989e-06 
       1.11136407e-07       2.45264571e-06      -4.73815063e-06 
       3.50529134e-07       2.45264590e-06      -4.73609863e-06 
      -1.12199413e-07       2.45059313e-06      -4.73609788e-06 
      -3.51592140e-07       2.45059293e-06      -4.73814989e-06 
       1.11136407e-07       2.45264571e-06      -4.73815063e-06 
       3.50529134e-07       2.45264590e-06      -4.73609863e-06 
      -1.18972216e-07       2.79398849e-06      -5.39994382e-06 
      -3.72784235e-07       2.79398826e-06      -5.40213097e-06 
       1.17852147e-07       2.79617628e-06      -5.40213181e-06 
       3.71664167e-07       2.79617650e-06      -5.39994466e-06 
      -1.18972216e-07       2.79398849e-06      -5.39994382e-06 
      -3.72784235e-07       2.79398826e-06      -5.40213097e-06 
       1.17852147e-07       2.79617628e-06      -5.40213181e-06 
       3.71664167e-07       2.79617650e-06      -5.39994466e-06 
      -1.25589426e-07       3.15722883e-06      -6.10220226e-06 
      -3.93482347e-07       3.15722858e-06      -6.10452456e-06 
       1.24411964e-07       3.15955184e-06      -6.10452549e-06 
       3.92304885e-07       3.15955209e-06      -6.10220320e-06 
      -1.25589426e-07       3.15722883e-06      -6.10220226e-06 
      -3.93482347e-07       3.15722858e-06      -6.10452456e-06 
       1.24411964e-07       3.15955184e-06      -6.10452549e-06 
       3.92304885e-07       3.15955209e-06      -6.10220320e-06 
      -1.32051039e-07       3.53984291e-06      -6.84196814e-06 
      -4.13686470e-07       3.53984263e-06      -6.84442558e-06 
       1.30815863e-07       3.54230114e-06      -6.84442661e-06 
       4.12451293e-07       3.54230141e-06      -6.84196917e-06 
      -1.32051039e-07       3.53984291e-06      -6.84196814e-06 
      -4.13686470e-07       3.53984263e-06      -6.84442558e-06 
       1.30815863e-07       3.54230114e-06      -6.84442661e-06 
       4.12451293e-07       3.54230141e-06      -6.84196917e-06 
      -1.38357053e-07       3.94135947e-06      -7.61833638e-06 
      -4.33396602e-07       3.94135917e-06      -7.62092896e-06 
       1.37063846e-07       3.94395292e-06      -7.62093009e-06 
       4.32103394e-07       3.94395322e-06      -7.61833751e-06 
      -1.38357053e-07       3.94135947e-06      -7.61833638e-06 
      -4.33396602e-07       3.94135917e-06      -7.62092896e-06 
       1.37063846e-07       3.94395292e-06      -7.62093009e-06 
       4.32103394e-07       3.94395322e-06      -7.61833751e-06 
      -1.44507463e-07       4.36130726e-06      -8.43040190e-06 
      -4.52612738e-07       4.36130693e-06      -8.43312962e-06 
       1.43155918e-07       4.36403593e-06      -8.43313086e-06 
       4.51261193e-07       4.36403626e-06      -8.43040314e-06 
      -1.44507463e-07       4.36130726e-06      -8.43040190e-06 
      -4.52612738e-07       4.36130693e-06      -8.43312962e-06 
       1.43155918e-07       4.36403593e-06      -8.43313086e-06 
       4.51261193e-07       4.36403626e-06      -8.43040314e-06 
      -1.50502266e-07       4.79921504e-06      -9.27725964e-06 
      -4.71334875e-07       4.79921468e-06      -9.28012250e-06 
       1.49092083e-07       4.80207893e-06      -9.28012384e-06 
       4.69924692e-07       4.80207929e-06      -9.27726098e-06 
      -1.50502266e-07       4.79921504e-06      -9.27725964e-06 
      -4.71334875e-07       4.79921468e-06      -9.28012250e-06 
       1.49092083e-07       4.80207893e-06      -9.28012384e-06 
       4.69924692e-07       4.80207929e-06      -9.27726098e-06 
      -1.56339943e-07       5.25462868e-06      -1.01580297e-05 
      -4.89581287e-07       5.25462829e-06      -1.01610118e-05 
       1.54891365e-07       5.25761184e-06      -1.01610132e-05 
       4.88132708e-07       5.25761223e-06      -1.01580311e-05 
      -1.56339943e-07       5.25462868e-06      -1.01580297e-05 
      -4.89581287e-07       5.25462829e-06      -1.01610118e-05 
       1.54891365e-07       5.25761184e-06      -1.01610132e-05 
       4.88132708e-07       5.25761223e-06      -1.01580311e-05 
      -1.62039896e-07       5.72711507e-06      -1.10718863e-05 
      -5.07391377e-07       5.72711466e-06      -1.10749875e-05 
       1.60552496e-07       5.73021750e-06      -1.10749891e-05 
       5.05903976e-07       5.73021792e-06      -1.10718879e-05 
      -1.62039896e-07       5.72711507e-06      -1.10718863e-05 
      -5.07391377e-07       5.72711466e-06      -1.10749875e-05 
       1.60552496e-07       5.73021750e-06      -1.10749891e-05 
       5.05903976e-07       5.73021792e-06      -1.10718879e-05 
      -1.67602120e-07       6.21625838e-06      -1.20180294e-05 
      -5.24765138e-07       6.21625793e-06      -1.20212498e-05 
       1.66075482e-07       6.21948008e-06      -1.20212515e-05 
       5.23238500e-07       6.21948053e-06      -1.20180311e-05 
      -1.67602120e-07       6.21625838e-06      -1.20180294e-05 
      -5.24765138e-07       6.21625793e-06      -1.20212498e-05 
       1.66075482e-07       6.21948008e-06      -1.20212515e-05 
       5.23238500e-07       6.21948053e-06      -1.20180311e-05 
      -1.73026612e-07       6.72164276e-06      -1.29956590e-05 
      -5.41702568e-07       6.72164229e-06      -1.29989986e-05 
       1.71460327e-07       6.72498374e-06      -1.29990004e-05 
       5.40136282e-07       6.72498421e-06      -1.29956608e-05 
      -1.73026612e-07       6.72164276e-06      -1.29956590e-05 
      -5.41702568e-07       6.72164229e-06      -1.29989986e-05 
       1.71460327e-07       6.72498374e-06      -1.29990004e-05 
       5.40136282e-07       6.72498421e-06      -1.29956608e-05 
      -1.78313364e-07       7.24285238e-06      -1.40039751e-05 
      -5.58203659e-07       7.24285188e-06      -1.40074339e-05 
       1.76707037e-07       7.24631264e-06      -1.40074357e-05 
       5.56597332e-07       7.24631314e-06      -1.40039769e-05 
      -1.78313364e-07       7.24285238e-06      -1.40039751e-05 
      -5.58203659e-07       7.24285188e-06      -1.40074339e-05 
       1.76707037e-07       7.24631264e-06      -1.40074357e-05 
       5.56597332e-07       7.24631314e-06      -1.40039769e-05 
      -1.83462373e-07       7.77947142e-06      -1.50421776e-05 
      -5.74268409e-07       7.77947089e-06      -1.50457556e-05 
       1.81815616e-07       7.78305094e-06      -1.50457575e-05 
       5.72621652e-07       7.78305148e-06      -1.50421795e-05 
      -1.83462373e-07       7.77947142e-06      -1.50421776e-05 
      -5.74268409e-07       7.77947089e-06      -1.50457556e-05 
       1.81815616e-07       7.78305094e-06      -1.50457575e-05 
       5.72621652e-07       7.78305148e-06      -1.50421795e-05 
      -1.88473633e-07       8.33108403e-06      -1.61094665e-05 
      -5.89896811e-07       8.33108346e-06      -1.61131637e-05 
       1.86786070e-07       8.33478282e-06      -1.61131658e-05 
       5.88209248e-07       8.33478339e-06      -1.61094686e-05 
      -1.88473633e-07       8.33108403e-06      -1.61094665e-05 
      -5.89896811e-07       8.33108346e-06      -1.61131637e-05 
       1.86786070e-07       8.33478282e-06      -1.61131658e-05 
       5.88209248e-07       8.33478339e-06      -1.61094686e-05 
      -1.93347137e-07       8.89727437e-06      -1.72050418e-05 
      -6.05088857e-07       8.89727378e-06      -1.72088582e-05 
       1.91618406e-07       8.90109244e-06      -1.72088604e-05 
       6.03360126e-07       8.90109303e-06      -1.72050440e-05 
      -1.93347137e-07       8.89727437e-06      -1.72050418e-05 
      -6.05088857e-07       8.89727378e-06      -1.72088582e-05 
       1.91618406e-07       8.90109244e-06      -1.72088604e-05 
       6.03360126e-07       8.90109303e-06      -1.72050440e-05 
      -1.98082883e-07       9.47762662e-06      -1.83281035e-05 
      -6.19844546e-07       9.47762600e-06      -1.83320390e-05 
       1.96312627e-07       9.48156396e-06      -1.83320413e-05 
       6.18074290e-07       9.48156458e-06      -1.83281058e-05 
      -1.98082883e-07       9.47762662e-06      -1.83281035e-05 
      -6.19844546e-07       9.47762600e-06      -1.83320390e-05 
       1.96312627e-07       9.48156396e-06      -1.83320413e-05 
       6.18074290e-07       9.48156458e-06      -1.83281058e-05 
      -2.02680864e-07       1.00717249e-05      -1.94778515e-05 
      -6.34163873e-07       1.00717243e-05      -1.94819062e-05 
       2.00868739e-07       1.00757815e-05      -1.94819087e-05 
       6.32351746e-07       1.00757822e-05      -1.94778539e-05 
      -2.02680864e-07       1.00717249e-05      -1.94778515e-05 
      -6.34163872e-07       1.00717243e-05      -1.94819062e-05 
       2.00868739e-07       1.00757815e-05      -1.94819087e-05 
       6.32351746e-07       1.00757822e-05      -1.94778539e-05 
      -2.07142945e-07       1.06791706e-05      -2.06535110e-05 
      -6.48068515e-07       1.06791699e-05      -2.06576690e-05 
       2.05302557e-07       1.06833305e-05      -2.06576716e-05 
       6.46228128e-07       1.06833312e-05      -2.06535136e-05 
      -2.07142945e-07       1.06791706e-05      -2.06535110e-05 
      -6.48068515e-07       1.06791699e-05      -2.06576690e-05 
       2.05302557e-07       1.06833305e-05      -2.06576716e-05 
       6.46228128e-07       1.06833312e-05      -2.06535136e-05 
      -2.11485459e-07       1.12995861e-05      -2.18543623e-05 
      -6.61595046e-07       1.12995854e-05      -2.18586236e-05 
       2.09616402e-07       1.13038494e-05      -2.18586262e-05 
       6.59725989e-07       1.13038501e-05      -2.18543650e-05 
      -2.11485459e-07       1.12995861e-05      -2.18543623e-05 
      -6.61595046e-07       1.12995854e-05      -2.18586236e-05 
       2.09616402e-07       1.13038494e-05      -2.18586262e-05 
       6.59725989e-07       1.13038501e-05      -2.18543650e-05 
      -2.15708401e-07       1.19326115e-05      -2.30797116e-05 
      -6.74743458e-07       1.19326108e-05      -2.30840762e-05 
       2.13810278e-07       1.19369781e-05      -2.30840789e-05 
       6.72845335e-07       1.19369789e-05      -2.30797144e-05 
      -2.15708401e-07       1.19326115e-05      -2.30797116e-05 
      -6.74743458e-07       1.19326108e-05      -2.30840762e-05 
       2.13810278e-07       1.19369781e-05      -2.30840789e-05 
       6.72845335e-07       1.19369789e-05      -2.30797144e-05 
      -2.19811768e-07       1.25778867e-05      -2.43288654e-05 
      -6.87513747e-07       1.25778859e-05      -2.43333332e-05 
       2.17884192e-07       1.25823566e-05      -2.43333360e-05 
       6.85586171e-07       1.25823574e-05      -2.43288683e-05 
      -2.19811768e-07       1.25778867e-05      -2.43288654e-05 
      -6.87513747e-07       1.25778859e-05      -2.43333332e-05 
       2.17884192e-07       1.25823566e-05      -2.43333360e-05 
       6.85586171e-07       1.25823574e-05      -2.43288683e-05 
      -2.23795551e-07       1.32350515e-05      -2.56011299e-05 
      -6.99905907e-07       1.32350507e-05      -2.56057010e-05 
       2.21838147e-07       1.32396248e-05      -2.56057039e-05 
       6.97948503e-07       1.32396256e-05      -2.56011329e-05 
      -2.23795551e-07       1.32350515e-05      -2.56011299e-05 
      -6.99905907e-07       1.32350507e-05      -2.56057010e-05 
       2.21838147e-07       1.32396248e-05      -2.56057039e-05 
       6.97948503e-07       1.32396256e-05      -2.56011329e-05 
      -2.27659746e-07       1.39037460e-05      -2.68958116e-05 
      -7.11919932e-07       1.39037452e-05      -2.69004859e-05 
       2.25672150e-07       1.39084227e-05      -2.69004889e-05 
       7.09932336e-07       1.39084235e-05      -2.68958146e-05 
      -2.27659746e-07       1.39037460e-05      -2.68958116e-05 
      -7.11919932e-07       1.39037452e-05      -2.69004859e-05 
       2.25672150e-07       1.39084227e-05      -2.69004889e-05 
       7.09932336e-07       1.39084235e-05      -2.68958146e-05 
      -2.31404348e-07       1.45836101e-05      -2.82122167e-05 
      -7.23555816e-07       1.45836093e-05      -2.82169943e-05 
       2.29386208e-07       1.45883901e-05      -2.82169974e-05 
       7.21537677e-07       1.45883909e-05      -2.82122199e-05 
      -2.31404348e-07       1.45836101e-05      -2.82122167e-05 
      -7.23555816e-07       1.45836093e-05      -2.82169943e-05 
       2.29386208e-07       1.45883901e-05      -2.82169974e-05 
       7.21537677e-07       1.45883909e-05      -2.82122199e-05 
      -2.35029348e-07       1.52742838e-05      -2.95496517e-05 
      -7.34813554e-07       1.52742829e-05      -2.95545325e-05 
       2.32980327e-07       1.52791671e-05      -2.95545357e-05 
       7.32764532e-07       1.52791679e-05      -2.95496549e-05 
      -2.35029348e-07       1.52742838e-05      -2.95496517e-05 
      -7.34813554e-07       1.52742829e-05      -2.95545325e-05 