# vtk DataFile Version 2.0
./output/onsasExample_BladeCantileverBeamPitch_windVel3DDynamic 3D/onsasExample_BladeCantileverBeamPitch_windVel3DDynamic 3D_0317.vtk
ASCII
DATASET UNSTRUCTURED_GRID

POINTS 800 float
       2.285355e-23      -7.180703e-02      -7.180703e-02 
       1.940261e-23       7.180703e-02      -7.180703e-02 
      -2.285355e-23       7.180703e-02       7.180703e-02 
      -1.940261e-23      -7.180703e-02       7.180703e-02 
       2.000000e-01      -7.180702e-02      -7.180706e-02 
       2.000000e-01       7.180705e-02      -7.180706e-02 
       2.000000e-01       7.180705e-02       7.180701e-02 
       2.000000e-01      -7.180702e-02       7.180701e-02 
       2.000000e-01      -7.180702e-02      -7.180706e-02 
       2.000000e-01       7.180705e-02      -7.180706e-02 
       2.000000e-01       7.180705e-02       7.180701e-02 
       2.000000e-01      -7.180702e-02       7.180701e-02 
       4.000000e-01      -7.180698e-02      -7.180714e-02 
       3.999999e-01       7.180709e-02      -7.180714e-02 
       4.000000e-01       7.180709e-02       7.180693e-02 
       4.000001e-01      -7.180698e-02       7.180693e-02 
       4.000000e-01      -7.180698e-02      -7.180714e-02 
       3.999999e-01       7.180709e-02      -7.180714e-02 
       4.000000e-01       7.180709e-02       7.180693e-02 
       4.000001e-01      -7.180698e-02       7.180693e-02 
       6.000000e-01      -7.180691e-02      -7.180727e-02 
       5.999999e-01       7.180715e-02      -7.180727e-02 
       6.000000e-01       7.180716e-02       7.180680e-02 
       6.000001e-01      -7.180691e-02       7.180680e-02 
       6.000000e-01      -7.180691e-02      -7.180727e-02 
       5.999999e-01       7.180715e-02      -7.180727e-02 
       6.000000e-01       7.180716e-02       7.180680e-02 
       6.000001e-01      -7.180691e-02       7.180680e-02 
       8.000000e-01      -7.180682e-02      -7.180744e-02 
       7.999999e-01       7.180725e-02      -7.180744e-02 
       8.000000e-01       7.180725e-02       7.180662e-02 
       8.000001e-01      -7.180682e-02       7.180662e-02 
       8.000000e-01      -7.180682e-02      -7.180744e-02 
       7.999999e-01       7.180725e-02      -7.180744e-02 
       8.000000e-01       7.180725e-02       7.180662e-02 
       8.000001e-01      -7.180682e-02       7.180662e-02 
       1.000000e+00      -7.180670e-02      -7.180767e-02 
       9.999999e-01       7.180737e-02      -7.180767e-02 
       1.000000e+00       7.180737e-02       7.180639e-02 
       1.000000e+00      -7.180670e-02       7.180640e-02 
       1.000000e+00      -7.180670e-02      -7.180767e-02 
       9.999999e-01       7.180737e-02      -7.180767e-02 
       1.000000e+00       7.180737e-02       7.180639e-02 
       1.000000e+00      -7.180670e-02       7.180640e-02 
       1.200000e+00      -7.180656e-02      -7.180795e-02 
       1.200000e+00       7.180751e-02      -7.180795e-02 
       1.200000e+00       7.180751e-02       7.180612e-02 
       1.200000e+00      -7.180655e-02       7.180612e-02 
       1.200000e+00      -7.180656e-02      -7.180795e-02 
       1.200000e+00       7.180751e-02      -7.180795e-02 
       1.200000e+00       7.180751e-02       7.180612e-02 
       1.200000e+00      -7.180655e-02       7.180612e-02 
       1.400000e+00      -7.180639e-02      -7.180827e-02 
       1.400000e+00       7.180768e-02      -7.180827e-02 
       1.400000e+00       7.180768e-02       7.180580e-02 
       1.400000e+00      -7.180639e-02       7.180580e-02 
       1.400000e+00      -7.180639e-02      -7.180827e-02 
       1.400000e+00       7.180768e-02      -7.180827e-02 
       1.400000e+00       7.180768e-02       7.180580e-02 
       1.400000e+00      -7.180639e-02       7.180580e-02 
       1.600000e+00      -7.180620e-02      -7.180863e-02 
       1.600000e+00       7.180787e-02      -7.180864e-02 
       1.600000e+00       7.180787e-02       7.180543e-02 
       1.600000e+00      -7.180619e-02       7.180543e-02 
       1.600000e+00      -7.180620e-02      -7.180863e-02 
       1.600000e+00       7.180787e-02      -7.180864e-02 
       1.600000e+00       7.180787e-02       7.180543e-02 
       1.600000e+00      -7.180619e-02       7.180543e-02 
       1.800000e+00      -7.180598e-02      -7.180905e-02 
       1.800000e+00       7.180809e-02      -7.180905e-02 
       1.800000e+00       7.180809e-02       7.180502e-02 
       1.800000e+00      -7.180598e-02       7.180502e-02 
       1.800000e+00      -7.180598e-02      -7.180905e-02 
       1.800000e+00       7.180809e-02      -7.180905e-02 
       1.800000e+00       7.180809e-02       7.180502e-02 
       1.800000e+00      -7.180598e-02       7.180502e-02 
       2.000000e+00      -7.180574e-02      -7.180950e-02 
       2.000000e+00       7.180832e-02      -7.180950e-02 
       2.000000e+00       7.180833e-02       7.180456e-02 
       2.000000e+00      -7.180574e-02       7.180456e-02 
       2.000000e+00      -7.180574e-02      -7.180950e-02 
       2.000000e+00       7.180832e-02      -7.180950e-02 
       2.000000e+00       7.180833e-02       7.180456e-02 
       2.000000e+00      -7.180574e-02       7.180456e-02 
       2.200000e+00      -7.180548e-02      -7.181000e-02 
       2.200000e+00       7.180858e-02      -7.181000e-02 
       2.200000e+00       7.180859e-02       7.180406e-02 
       2.200000e+00      -7.180548e-02       7.180407e-02 
       2.200000e+00      -7.180548e-02      -7.181000e-02 
       2.200000e+00       7.180858e-02      -7.181000e-02 
       2.200000e+00       7.180859e-02       7.180406e-02 
       2.200000e+00      -7.180548e-02       7.180407e-02 
       2.400000e+00      -7.180520e-02      -7.181054e-02 
       2.400000e+00       7.180887e-02      -7.181054e-02 
       2.400000e+00       7.180887e-02       7.180352e-02 
       2.400000e+00      -7.180520e-02       7.180353e-02 
       2.400000e+00      -7.180520e-02      -7.181054e-02 
       2.400000e+00       7.180887e-02      -7.181054e-02 
       2.400000e+00       7.180887e-02       7.180352e-02 
       2.400000e+00      -7.180520e-02       7.180353e-02 
       2.600000e+00      -7.180490e-02      -7.181112e-02 
       2.600000e+00       7.180917e-02      -7.181112e-02 
       2.600000e+00       7.180917e-02       7.180294e-02 
       2.600000e+00      -7.180489e-02       7.180294e-02 
       2.600000e+00      -7.180490e-02      -7.181112e-02 
       2.600000e+00       7.180917e-02      -7.181112e-02 
       2.600000e+00       7.180917e-02       7.180294e-02 
       2.600000e+00      -7.180489e-02       7.180294e-02 
       2.800000e+00      -7.180457e-02      -7.181174e-02 
       2.800000e+00       7.180950e-02      -7.181174e-02 
       2.800000e+00       7.180950e-02       7.180232e-02 
       2.800000e+00      -7.180457e-02       7.180232e-02 
       2.800000e+00      -7.180457e-02      -7.181174e-02 
       2.800000e+00       7.180950e-02      -7.181174e-02 
       2.800000e+00       7.180950e-02       7.180232e-02 
       2.800000e+00      -7.180457e-02       7.180232e-02 
       3.000000e+00      -7.180423e-02      -7.181240e-02 
       3.000000e+00       7.180984e-02      -7.181241e-02 
       3.000000e+00       7.180984e-02       7.180166e-02 
       3.000000e+00      -7.180422e-02       7.180166e-02 
       3.000000e+00      -7.180423e-02      -7.181240e-02 
       3.000000e+00       7.180984e-02      -7.181241e-02 
       3.000000e+00       7.180984e-02       7.180166e-02 
       3.000000e+00      -7.180422e-02       7.180166e-02 
       3.200000e+00      -7.180386e-02      -7.181310e-02 
       3.200000e+00       7.181021e-02      -7.181310e-02 
       3.200000e+00       7.181021e-02       7.180096e-02 
       3.200000e+00      -7.180386e-02       7.180096e-02 
       3.200000e+00      -7.180386e-02      -7.181310e-02 
       3.200000e+00       7.181021e-02      -7.181310e-02 
       3.200000e+00       7.181021e-02       7.180096e-02 
       3.200000e+00      -7.180386e-02       7.180096e-02 
       3.400000e+00      -7.180348e-02      -7.181384e-02 
       3.400000e+00       7.181059e-02      -7.181384e-02 
       3.400000e+00       7.181059e-02       7.180023e-02 
       3.400000e+00      -7.180347e-02       7.180023e-02 
       3.400000e+00      -7.180348e-02      -7.181384e-02 
       3.400000e+00       7.181059e-02      -7.181384e-02 
       3.400000e+00       7.181059e-02       7.180023e-02 
       3.400000e+00      -7.180347e-02       7.180023e-02 
       3.600000e+00      -7.180307e-02      -7.181461e-02 
       3.600000e+00       7.181099e-02      -7.181461e-02 
       3.600000e+00       7.181100e-02       7.179945e-02 
       3.600000e+00      -7.180307e-02       7.179946e-02 
       3.600000e+00      -7.180307e-02      -7.181461e-02 
       3.600000e+00       7.181099e-02      -7.181461e-02 
       3.600000e+00       7.181100e-02       7.179945e-02 
       3.600000e+00      -7.180307e-02       7.179946e-02 
       3.800000e+00      -7.180265e-02      -7.181542e-02 
       3.800000e+00       7.181142e-02      -7.181542e-02 
       3.800000e+00       7.181142e-02       7.179865e-02 
       3.800000e+00      -7.180265e-02       7.179865e-02 
       3.800000e+00      -7.180265e-02      -7.181542e-02 
       3.800000e+00       7.181142e-02      -7.181542e-02 
       3.800000e+00       7.181142e-02       7.179865e-02 
       3.800000e+00      -7.180265e-02       7.179865e-02 
       4.000000e+00      -7.180221e-02      -7.181626e-02 
       4.000000e+00       7.181186e-02      -7.181626e-02 
       4.000000e+00       7.181186e-02       7.179780e-02 
       4.000000e+00      -7.180221e-02       7.179781e-02 
       4.000000e+00      -7.180221e-02      -7.181626e-02 
       4.000000e+00       7.181186e-02      -7.181626e-02 
       4.000000e+00       7.181186e-02       7.179780e-02 
       4.000000e+00      -7.180221e-02       7.179781e-02 
       4.200000e+00      -7.180175e-02      -7.181713e-02 
[...]
POINT_DATA       800 
VECTORS Displacements float
       2.28535465e-23      -1.38777878e-17       0.00000000e+00 
       1.94026143e-23       1.38777878e-17       0.00000000e+00 
      -2.28535465e-23       1.38777878e-17       0.00000000e+00 
      -1.94026143e-23      -1.38777878e-17       0.00000000e+00 
      -8.98852562e-09       1.36321005e-08      -2.61298355e-08 
      -2.86131650e-08       1.36320992e-08      -2.62832018e-08 
       8.90277224e-09       1.37854705e-08      -2.62832067e-08 
       2.85274116e-08       1.37854719e-08      -2.61298404e-08 
      -8.98852562e-09       1.36321005e-08      -2.61298355e-08 
      -2.86131650e-08       1.36320992e-08      -2.62832018e-08 
       8.90277224e-09       1.37854705e-08      -2.62832067e-08 
       2.85274116e-08       1.37854719e-08      -2.61298404e-08 
      -1.78055041e-08       5.43302482e-08      -1.04002506e-07 
      -5.66761572e-08       5.43302429e-08      -1.04309233e-07 
       1.76338345e-08       5.46369906e-08      -1.04309252e-07 
       5.65044876e-08       5.46369958e-08      -1.04002525e-07 
      -1.78055041e-08       5.43302482e-08      -1.04002506e-07 
      -5.66761572e-08       5.43302429e-08      -1.04309233e-07 
       1.76338345e-08       5.46369906e-08      -1.04309252e-07 
       5.65044876e-08       5.46369958e-08      -1.04002525e-07 
      -2.64509337e-08       1.21567161e-07      -2.32612701e-07 
      -8.41889750e-08       1.21567149e-07      -2.33072785e-07 
       2.61931883e-08       1.22027278e-07      -2.33072828e-07 
       8.39312296e-08       1.22027290e-07      -2.32612744e-07 
      -2.64509337e-08       1.21567161e-07      -2.32612701e-07 
      -8.41889750e-08       1.21567149e-07      -2.33072785e-07 
       2.61931883e-08       1.22027278e-07      -2.33072828e-07 
       8.39312296e-08       1.22027290e-07      -2.32612744e-07 
      -3.49248130e-08       2.14815557e-07      -4.10955113e-07 
      -1.11151617e-07       2.14815537e-07      -4.11568549e-07 
       3.45808355e-08       2.15429050e-07      -4.11568623e-07 
       1.10807639e-07       2.15429071e-07      -4.10955187e-07 
      -3.49248130e-08       2.14815557e-07      -4.10955113e-07 
      -1.11151617e-07       2.14815537e-07      -4.11568549e-07 
       3.45808355e-08       2.15429050e-07      -4.11568623e-07 
       1.10807639e-07       2.15429071e-07      -4.10955187e-07 
      -4.32271402e-08       3.33548154e-07      -6.38024432e-07 
      -1.37564081e-07       3.33548123e-07      -6.38791216e-07 
       4.27967775e-08       3.34315026e-07      -6.38791330e-07 
       1.37133718e-07       3.34315057e-07      -6.38024545e-07 
      -4.32271402e-08       3.33548154e-07      -6.38024432e-07 
      -1.37564081e-07       3.33548123e-07      -6.38791216e-07 
       4.27967775e-08       3.34315026e-07      -6.38791330e-07 
       1.37133718e-07       3.34315057e-07      -6.38024545e-07 
      -5.13579141e-08       4.77237669e-07      -9.12815348e-07 
      -1.63426366e-07       4.77237625e-07      -9.13735478e-07 
       5.08410154e-08       4.78157922e-07      -9.13735637e-07 
       1.62909467e-07       4.78157965e-07      -9.12815508e-07 
      -5.13579141e-08       4.77237669e-07      -9.12815348e-07 
      -1.63426366e-07       4.77237625e-07      -9.13735478e-07 
       5.08410154e-08       4.78157922e-07      -9.13735637e-07 
       1.62909467e-07       4.78157965e-07      -9.12815508e-07 
      -5.93171328e-08       6.45356822e-07      -1.23432255e-06 
      -1.88738470e-07       6.45356763e-07      -1.23539602e-06 
       5.87135520e-08       6.46430456e-07      -1.23539624e-06 
       1.88134889e-07       6.46430515e-07      -1.23432277e-06 
      -5.93171328e-08       6.45356822e-07      -1.23432255e-06 
      -1.88738470e-07       6.45356763e-07      -1.23539602e-06 
       5.87135520e-08       6.46430456e-07      -1.23539624e-06 
       1.88134889e-07       6.46430515e-07      -1.23432277e-06 
      -6.71047948e-08       8.37378329e-07      -1.60154074e-06 
      -2.13500392e-07       8.37378254e-07      -1.60276755e-06 
       6.64143878e-08       8.38605347e-07      -1.60276782e-06 
       2.12809985e-07       8.38605422e-07      -1.60154101e-06 
      -6.71047948e-08       8.37378329e-07      -1.60154074e-06 
      -2.13500392e-07       8.37378254e-07      -1.60276755e-06 
       6.64143878e-08       8.38605347e-07      -1.60276782e-06 
       2.12809985e-07       8.38605422e-07      -1.60154101e-06 
      -7.47208984e-08       1.05277491e-06      -2.01346459e-06 
      -2.37712130e-07       1.05277482e-06      -2.01484474e-06 
       7.39435246e-08       1.05415531e-06      -2.01484507e-06 
       2.36934756e-07       1.05415540e-06      -2.01346493e-06 
      -7.47208984e-08       1.05277491e-06      -2.01346459e-06 
      -2.37712130e-07       1.05277482e-06      -2.01484474e-06 
       7.39435246e-08       1.05415531e-06      -2.01484507e-06 
       2.36934756e-07       1.05415540e-06      -2.01346493e-06 
      -8.21654424e-08       1.29101928e-06      -2.46908881e-06 
      -2.61373682e-07       1.29101917e-06      -2.47062229e-06 
       8.13009642e-08       1.29255307e-06      -2.47062269e-06 
       2.60509204e-07       1.29255318e-06      -2.46908922e-06 
      -8.21654424e-08       1.29101928e-06      -2.46908881e-06 
      -2.61373682e-07       1.29101917e-06      -2.47062229e-06 
       8.13009642e-08       1.29255307e-06      -2.47062269e-06 
       2.60509204e-07       1.29255318e-06      -2.46908922e-06 
      -8.94331911e-08       1.55160131e-06      -2.96743355e-06 
      -2.84499644e-07       1.55160118e-06      -2.96910430e-06 
       8.85101872e-08       1.55327244e-06      -2.96910478e-06 
       2.83576640e-07       1.55327257e-06      -2.96743403e-06 
      -8.94331911e-08       1.55160131e-06      -2.96743355e-06 
      -2.84499644e-07       1.55160118e-06      -2.96910430e-06 
       8.85101872e-08       1.55327244e-06      -2.96910478e-06 
       2.83576640e-07       1.55327257e-06      -2.96743403e-06 
      -9.65484257e-08       1.83403225e-06      -3.50757548e-06 
      -3.07134760e-07       1.83403209e-06      -3.50938350e-06 
       9.55665374e-08       1.83584071e-06      -3.50938407e-06 
       3.06152872e-07       1.83584087e-06      -3.50757604e-06 
      -9.65484257e-08       1.83403225e-06      -3.50757548e-06 
      -3.07134760e-07       1.83403209e-06      -3.50938350e-06 
       9.55665374e-08       1.83584071e-06      -3.50938407e-06 
       3.06152872e-07       1.83584087e-06      -3.50757604e-06 
      -1.03511143e-07       2.13784092e-06      -4.08861815e-06 
      -3.29279029e-07       2.13784074e-06      -4.09056345e-06 
       1.02470018e-07       2.13978672e-06      -4.09056410e-06 
       3.28237904e-07       2.13978689e-06      -4.08861880e-06 
      -1.03511143e-07       2.13784092e-06      -4.08861815e-06 
      -3.29279029e-07       2.13784074e-06      -4.09056345e-06 
       1.02470018e-07       2.13978672e-06      -4.09056410e-06 
       3.28237904e-07       2.13978689e-06      -4.08861880e-06 
      -1.10321338e-07       2.46255615e-06      -4.70966510e-06 
      -3.50932446e-07       2.46255595e-06      -4.71174767e-06 
       1.09220633e-07       2.46463929e-06      -4.71174841e-06 
       3.49831740e-07       2.46463949e-06      -4.70966584e-06 
      -1.10321338e-07       2.46255615e-06      -4.70966510e-06 
      -3.50932446e-07       2.46255595e-06      -4.71174767e-06 
       1.09220633e-07       2.46463929e-06      -4.71174841e-06 
       3.49831740e-07       2.46463949e-06      -4.70966584e-06 
      -1.16979008e-07       2.80770678e-06      -5.36981989e-06 
      -3.72095007e-07       2.80770656e-06      -5.37203973e-06 
       1.15818385e-07       2.80992726e-06      -5.37204055e-06 
       3.70934384e-07       2.80992749e-06      -5.36982071e-06 
      -1.16979008e-07       2.80770678e-06      -5.36981989e-06 
      -3.72095007e-07       2.80770656e-06      -5.37203973e-06 
       1.15818385e-07       2.80992726e-06      -5.37204055e-06 
       3.70934384e-07       2.80992749e-06      -5.36982071e-06 
      -1.23484150e-07       3.17282165e-06      -6.06818605e-06 
      -3.92766709e-07       3.17282140e-06      -6.07054315e-06 
       1.22263280e-07       3.17517947e-06      -6.07054408e-06 
       3.91545838e-07       3.17517973e-06      -6.06818697e-06 
      -1.23484150e-07       3.17282165e-06      -6.06818605e-06 
      -3.92766709e-07       3.17282140e-06      -6.07054315e-06 
       1.22263280e-07       3.17517947e-06      -6.07054408e-06 
       3.91545838e-07       3.17517973e-06      -6.06818697e-06 
      -1.29836757e-07       3.55742959e-06      -6.80386713e-06 
      -4.12947546e-07       3.55742931e-06      -6.80636150e-06 
       1.28555320e-07       3.55992475e-06      -6.80636252e-06 
       4.11666110e-07       3.55992503e-06      -6.80386815e-06 
      -1.29836757e-07       3.55742959e-06      -6.80386713e-06 
      -4.12947546e-07       3.55742931e-06      -6.80636150e-06 
       1.28555320e-07       3.55992475e-06      -6.80636252e-06 
       4.11666110e-07       3.55992503e-06      -6.80386815e-06 
      -1.36036828e-07       3.96105943e-06      -7.57596667e-06 
      -4.32637516e-07       3.96105912e-06      -7.57859831e-06 
       1.34694510e-07       3.96369194e-06      -7.57859943e-06 
       4.31295200e-07       3.96369224e-06      -7.57596779e-06 
      -1.36036828e-07       3.96105943e-06      -7.57596667e-06 
      -4.32637516e-07       3.96105912e-06      -7.57859831e-06 
       1.34694510e-07       3.96369194e-06      -7.57859943e-06 
       4.31295200e-07       3.96369224e-06      -7.57596779e-06 
      -1.42084357e-07       4.38324001e-06      -8.38358823e-06 
      -4.51836616e-07       4.38323967e-06      -8.38635713e-06 
       1.40680855e-07       4.38600986e-06      -8.38635835e-06 
       4.50433113e-07       4.38601019e-06      -8.38358945e-06 
      -1.42084357e-07       4.38324001e-06      -8.38358823e-06 
      -4.51836616e-07       4.38323967e-06      -8.38635713e-06 
       1.40680855e-07       4.38600986e-06      -8.38635835e-06 
       4.50433113e-07       4.38601019e-06      -8.38358945e-06 
      -1.47979342e-07       4.82350016e-06      -9.22583534e-06 
      -4.70544840e-07       4.82349979e-06      -9.22874151e-06 
       1.46514354e-07       4.82640735e-06      -9.22874283e-06 
       4.69079852e-07       4.82640771e-06      -9.22583666e-06 
      -1.47979342e-07       4.82350016e-06      -9.22583534e-06 
      -4.70544840e-07       4.82349979e-06      -9.22874151e-06 
       1.46514355e-07       4.82640735e-06      -9.22874283e-06 
       4.69079853e-07       4.82640771e-06      -9.22583666e-06 
      -1.53721424e-07       5.28138618e-06      -1.01018382e-05 
      -4.88782113e-07       5.28138579e-06      -1.01048656e-05 
       1.52214888e-07       5.28441462e-06      -1.01048670e-05 
       4.87275575e-07       5.28441501e-06      -1.01018397e-05 
      -1.53721424e-07       5.28138618e-06      -1.01018382e-05 
      -4.88782113e-07       5.28138579e-06      -1.01048656e-05 
       1.52214888e-07       5.28441462e-06      -1.01048670e-05 
       4.87275575e-07       5.28441501e-06      -1.01018397e-05 
      -1.59329901e-07       5.75646586e-06      -1.10107836e-05 
      -5.06587905e-07       5.75646544e-06      -1.10139322e-05 
       1.57781390e-07       5.75961555e-06      -1.10139337e-05 
       5.05039393e-07       5.75961597e-06      -1.10107852e-05 
      -1.59329901e-07       5.75646586e-06      -1.10107836e-05 
      -5.06587905e-07       5.75646544e-06      -1.10139322e-05 
       1.57781390e-07       5.75961555e-06      -1.10139337e-05 
       5.05039393e-07       5.75961597e-06      -1.10107852e-05 
      -1.64804768e-07       6.24832436e-06      -1.19518841e-05 
      -5.23962212e-07       6.24832391e-06      -1.19551537e-05 
       1.63213868e-07       6.25159531e-06      -1.19551554e-05 
       5.22371312e-07       6.25159576e-06      -1.19518857e-05 
      -1.64804768e-07       6.24832436e-06      -1.19518841e-05 
      -5.23962212e-07       6.24832391e-06      -1.19551537e-05 
       1.63213868e-07       6.25159531e-06      -1.19551554e-05 
       5.22371312e-07       6.25159576e-06      -1.19518857e-05 
      -1.70146021e-07       6.75654686e-06      -1.29243519e-05 
      -5.40905033e-07       6.75654638e-06      -1.29277428e-05 
       1.68512326e-07       6.75993907e-06      -1.29277445e-05 
       5.39271337e-07       6.75993955e-06      -1.29243537e-05 
      -1.70146021e-07       6.75654686e-06      -1.29243519e-05 
      -5.40905033e-07       6.75654638e-06      -1.29277428e-05 
       1.68512326e-07       6.75993907e-06      -1.29277445e-05 
       5.39271337e-07       6.75993955e-06      -1.29243537e-05 
      -1.75353654e-07       7.28071853e-06      -1.39273997e-05 
      -5.57416358e-07       7.28071803e-06      -1.39309117e-05 
       1.73676768e-07       7.28423200e-06      -1.39309135e-05 
       5.55739472e-07       7.28423251e-06      -1.39274015e-05 
      -1.75353654e-07       7.28071853e-06      -1.39273997e-05 
      -5.57416358e-07       7.28071803e-06      -1.39309117e-05 
       1.73676768e-07       7.28423200e-06      -1.39309135e-05 
       5.55739472e-07       7.28423251e-06      -1.39274015e-05 
      -1.80427662e-07       7.82042456e-06      -1.49602398e-05 
      -5.73496183e-07       7.82042402e-06      -1.49638730e-05 
       1.78707201e-07       7.82405928e-06      -1.49638749e-05 
       5.71775723e-07       7.82405981e-06      -1.49602417e-05 
      -1.80427662e-07       7.82042456e-06      -1.49602398e-05 
      -5.73496183e-07       7.82042402e-06      -1.49638730e-05 
       1.78707201e-07       7.82405928e-06      -1.49638749e-05 
       5.71775723e-07       7.82405981e-06      -1.49602417e-05 
      -1.85368040e-07       8.37525010e-06      -1.60220847e-05 
      -5.89144505e-07       8.37524953e-06      -1.60258391e-05 
       1.83603630e-07       8.37900607e-06      -1.60258412e-05 
       5.87380094e-07       8.37900664e-06      -1.60220868e-05 
      -1.85368040e-07       8.37525010e-06      -1.60220847e-05 
      -5.89144505e-07       8.37524953e-06      -1.60258391e-05 
       1.83603630e-07       8.37900607e-06      -1.60258412e-05 
       5.87380094e-07       8.37900664e-06      -1.60220868e-05 
      -1.90174782e-07       8.94478034e-06      -1.71121470e-05 
      -6.04361315e-07       8.94477974e-06      -1.71160225e-05 
       1.88366060e-07       8.94865757e-06      -1.71160247e-05 
       6.02552593e-07       8.94865816e-06      -1.71121491e-05 
      -1.90174782e-07       8.94478034e-06      -1.71121470e-05 
      -6.04361315e-07       8.94477974e-06      -1.71160225e-05 
       1.88366060e-07       8.94865757e-06      -1.71160247e-05 
       6.02552593e-07       8.94865816e-06      -1.71121491e-05 
      -1.94847884e-07       9.52860044e-06      -1.82296389e-05 
      -6.19146612e-07       9.52859982e-06      -1.82336356e-05 
       1.92994494e-07       9.53259893e-06      -1.82336379e-05 
       6.17293222e-07       9.53259955e-06      -1.82296412e-05 
      -1.94847884e-07       9.52860044e-06      -1.82296389e-05 
      -6.19146612e-07       9.52859982e-06      -1.82336356e-05 
       1.92994494e-07       9.53259893e-06      -1.82336379e-05 
       6.17293222e-07       9.53259955e-06      -1.82296412e-05 
      -1.99387342e-07       1.01262956e-05      -1.93737731e-05 
      -6.33500390e-07       1.01262949e-05      -1.93778910e-05 
       1.97488939e-07       1.01304153e-05      -1.93778934e-05 
       6.31601987e-07       1.01304160e-05      -1.93737755e-05 
      -1.99387342e-07       1.01262956e-05      -1.93737731e-05 
      -6.33500390e-07       1.01262949e-05      -1.93778910e-05 
       1.97488939e-07       1.01304153e-05      -1.93778934e-05 
       6.31601987e-07       1.01304160e-05      -1.93737755e-05 
      -2.03795894e-07       1.07374685e-05      -2.05437886e-05 
      -6.47445704e-07       1.07374678e-05      -2.05480116e-05 
       2.01865859e-07       1.07416934e-05      -2.05480141e-05 
       6.45515669e-07       1.07416941e-05      -2.05437911e-05 
      -2.03795894e-07       1.07374685e-05      -2.05437886e-05 
      -6.47445704e-07       1.07374678e-05      -2.05480116e-05 
       2.01865859e-07       1.07416934e-05      -2.05480141e-05 
       6.45515669e-07       1.07416941e-05      -2.05437911e-05 
      -2.08089061e-07       1.13617431e-05      -2.17389797e-05 
      -6.61018008e-07       1.13617424e-05      -2.17433077e-05 
       2.06126986e-07       1.13660731e-05      -2.17433104e-05 
       6.59055933e-07       1.13660738e-05      -2.17389824e-05 
      -2.08089061e-07       1.13617431e-05      -2.17389797e-05 
      -6.61018008e-07       1.13617424e-05      -2.17433077e-05 
       2.06126986e-07       1.13660731e-05      -2.17433104e-05 
       6.59055933e-07       1.13660738e-05      -2.17389824e-05 
      -2.12266835e-07       1.19987606e-05      -2.29586657e-05 
      -6.74217296e-07       1.19987599e-05      -2.29630987e-05 
       2.10272325e-07       1.20031958e-05      -2.29631015e-05 
       6.72222786e-07       1.20031965e-05      -2.29586684e-05 
      -2.12266835e-07       1.19987606e-05      -2.29586657e-05 
      -6.74217296e-07       1.19987599e-05      -2.29630987e-05 
       2.10272325e-07       1.20031958e-05      -2.29631015e-05 
       6.72222786e-07       1.20031965e-05      -2.29586684e-05 
      -2.16329214e-07       1.26481623e-05      -2.42021658e-05 
      -6.87043563e-07       1.26481616e-05      -2.42067039e-05 
       2.14301880e-07       1.26527026e-05      -2.42067067e-05 
       6.85016230e-07       1.26527034e-05      -2.42021686e-05 
      -2.16329214e-07       1.26481623e-05      -2.42021658e-05 
      -6.87043563e-07       1.26481616e-05      -2.42067039e-05 
       2.14301880e-07       1.26527026e-05      -2.42067067e-05 
       6.85016230e-07       1.26527034e-05      -2.42021686e-05 
      -2.20276191e-07       1.33095894e-05      -2.54687993e-05 
      -6.99496804e-07       1.33095886e-05      -2.54734425e-05 
       2.18215659e-07       1.33142349e-05      -2.54734454e-05 
       6.97436272e-07       1.33142357e-05      -2.54688022e-05 
      -2.20276191e-07       1.33095894e-05      -2.54687993e-05 
      -6.99496804e-07       1.33095886e-05      -2.54734425e-05 
       2.18215659e-07       1.33142349e-05      -2.54734454e-05 
       6.97436272e-07       1.33142357e-05      -2.54688022e-05 
      -2.24107761e-07       1.39826831e-05      -2.67578855e-05 
      -7.11577013e-07       1.39826823e-05      -2.67626337e-05 
       2.22013665e-07       1.39874337e-05      -2.67626368e-05 
       7.09482918e-07       1.39874345e-05      -2.67578885e-05 
      -2.24107761e-07       1.39826831e-05      -2.67578855e-05 
      -7.11577013e-07       1.39826823e-05      -2.67626337e-05 
       2.22013665e-07       1.39874337e-05      -2.67626368e-05 
       7.09482918e-07       1.39874345e-05      -2.67578885e-05 
      -2.27823916e-07       1.46670847e-05      -2.80687437e-05 
      -7.23284185e-07       1.46670838e-05      -2.80735970e-05 
       2.25695906e-07       1.46719404e-05      -2.80736001e-05 
       7.21156174e-07       1.46719413e-05      -2.80687468e-05 
      -2.27823916e-07       1.46670847e-05      -2.80687437e-05 
      -7.23284185e-07       1.46670838e-05      -2.80735970e-05 
       2.25695906e-07       1.46719404e-05      -2.80736001e-05 
       7.21156174e-07       1.46719413e-05      -2.80687468e-05 
      -2.31424653e-07       1.53624353e-05      -2.94006932e-05 
      -7.34618311e-07       1.53624344e-05      -2.94056515e-05 
       2.29262387e-07       1.53673962e-05      -2.94056548e-05 
       7.32456045e-07       1.53673971e-05      -2.94006964e-05 
      -2.31424653e-07       1.53624353e-05      -2.94006932e-05 
      -7.34618311e-07       1.53624344e-05      -2.94056515e-05 