# vtk DataFile Version 2.0
./output/onsasExample_BladeCantileverBeamPitch_windVel3DDynamic 3D/onsasExample_BladeCantileverBeamPitch_windVel3DDynamic 3D_0064.vtk
ASCII
DATASET UNSTRUCTURED_GRID

POINTS 800 float
       2.365174e-24      -7.180703e-02      -7.180703e-02 
       1.772161e-23       7.180703e-02      -7.180703e-02 
      -2.365174e-24       7.180703e-02       7.180703e-02 
      -1.772161e-23      -7.180703e-02       7.180703e-02 
       2.000000e-01      -7.180702e-02      -7.180706e-02 
       2.000000e-01       7.180705e-02      -7.180706e-02 
       2.000000e-01       7.180705e-02       7.180701e-02 
       2.000000e-01      -7.180702e-02       7.180701e-02 
       2.000000e-01      -7.180702e-02      -7.180706e-02 
       2.000000e-01       7.180705e-02      -7.180706e-02 
       2.000000e-01       7.180705e-02       7.180701e-02 
       2.000000e-01      -7.180702e-02       7.180701e-02 
       4.000000e-01      -7.180698e-02      -7.180714e-02 
       3.999999e-01       7.180709e-02      -7.180714e-02 
       4.000000e-01       7.180709e-02       7.180692e-02 
       4.000001e-01      -7.180698e-02       7.180692e-02 
       4.000000e-01      -7.180698e-02      -7.180714e-02 
       3.999999e-01       7.180709e-02      -7.180714e-02 
       4.000000e-01       7.180709e-02       7.180692e-02 
       4.000001e-01      -7.180698e-02       7.180692e-02 
       6.000000e-01      -7.180691e-02      -7.180728e-02 
       5.999999e-01       7.180715e-02      -7.180728e-02 
       6.000000e-01       7.180715e-02       7.180679e-02 
       6.000001e-01      -7.180691e-02       7.180679e-02 
       6.000000e-01      -7.180691e-02      -7.180728e-02 
       5.999999e-01       7.180715e-02      -7.180728e-02 
       6.000000e-01       7.180715e-02       7.180679e-02 
       6.000001e-01      -7.180691e-02       7.180679e-02 
       8.000000e-01      -7.180682e-02      -7.180747e-02 
       7.999999e-01       7.180725e-02      -7.180747e-02 
       8.000000e-01       7.180725e-02       7.180660e-02 
       8.000001e-01      -7.180682e-02       7.180660e-02 
       8.000000e-01      -7.180682e-02      -7.180747e-02 
       7.999999e-01       7.180725e-02      -7.180747e-02 
       8.000000e-01       7.180725e-02       7.180660e-02 
       8.000001e-01      -7.180682e-02       7.180660e-02 
       1.000000e+00      -7.180670e-02      -7.180771e-02 
       9.999999e-01       7.180737e-02      -7.180771e-02 
       1.000000e+00       7.180737e-02       7.180635e-02 
       1.000000e+00      -7.180670e-02       7.180635e-02 
       1.000000e+00      -7.180670e-02      -7.180771e-02 
       9.999999e-01       7.180737e-02      -7.180771e-02 
       1.000000e+00       7.180737e-02       7.180635e-02 
       1.000000e+00      -7.180670e-02       7.180635e-02 
       1.200000e+00      -7.180656e-02      -7.180800e-02 
       1.200000e+00       7.180751e-02      -7.180800e-02 
       1.200000e+00       7.180751e-02       7.180606e-02 
       1.200000e+00      -7.180656e-02       7.180606e-02 
       1.200000e+00      -7.180656e-02      -7.180800e-02 
       1.200000e+00       7.180751e-02      -7.180800e-02 
       1.200000e+00       7.180751e-02       7.180606e-02 
       1.200000e+00      -7.180656e-02       7.180606e-02 
       1.400000e+00      -7.180639e-02      -7.180835e-02 
       1.400000e+00       7.180768e-02      -7.180835e-02 
       1.400000e+00       7.180768e-02       7.180572e-02 
       1.400000e+00      -7.180639e-02       7.180572e-02 
       1.400000e+00      -7.180639e-02      -7.180835e-02 
       1.400000e+00       7.180768e-02      -7.180835e-02 
       1.400000e+00       7.180768e-02       7.180572e-02 
       1.400000e+00      -7.180639e-02       7.180572e-02 
       1.600000e+00      -7.180620e-02      -7.180874e-02 
       1.600000e+00       7.180787e-02      -7.180874e-02 
       1.600000e+00       7.180787e-02       7.180533e-02 
       1.600000e+00      -7.180620e-02       7.180533e-02 
       1.600000e+00      -7.180620e-02      -7.180874e-02 
       1.600000e+00       7.180787e-02      -7.180874e-02 
       1.600000e+00       7.180787e-02       7.180533e-02 
       1.600000e+00      -7.180620e-02       7.180533e-02 
       1.800000e+00      -7.180598e-02      -7.180918e-02 
       1.800000e+00       7.180808e-02      -7.180918e-02 
       1.800000e+00       7.180808e-02       7.180489e-02 
       1.800000e+00      -7.180598e-02       7.180489e-02 
       1.800000e+00      -7.180598e-02      -7.180918e-02 
       1.800000e+00       7.180808e-02      -7.180918e-02 
       1.800000e+00       7.180808e-02       7.180489e-02 
       1.800000e+00      -7.180598e-02       7.180489e-02 
       2.000000e+00      -7.180575e-02      -7.180966e-02 
       2.000000e+00       7.180832e-02      -7.180966e-02 
       2.000000e+00       7.180832e-02       7.180440e-02 
       2.000000e+00      -7.180574e-02       7.180440e-02 
       2.000000e+00      -7.180575e-02      -7.180966e-02 
       2.000000e+00       7.180832e-02      -7.180966e-02 
       2.000000e+00       7.180832e-02       7.180440e-02 
       2.000000e+00      -7.180574e-02       7.180440e-02 
       2.200000e+00      -7.180549e-02      -7.181019e-02 
       2.200000e+00       7.180858e-02      -7.181019e-02 
       2.200000e+00       7.180858e-02       7.180387e-02 
       2.200000e+00      -7.180548e-02       7.180387e-02 
       2.200000e+00      -7.180549e-02      -7.181019e-02 
       2.200000e+00       7.180858e-02      -7.181019e-02 
       2.200000e+00       7.180858e-02       7.180387e-02 
       2.200000e+00      -7.180548e-02       7.180387e-02 
       2.400000e+00      -7.180521e-02      -7.181077e-02 
       2.400000e+00       7.180886e-02      -7.181077e-02 
       2.400000e+00       7.180886e-02       7.180330e-02 
       2.400000e+00      -7.180520e-02       7.180330e-02 
       2.400000e+00      -7.180521e-02      -7.181077e-02 
       2.400000e+00       7.180886e-02      -7.181077e-02 
       2.400000e+00       7.180886e-02       7.180330e-02 
       2.400000e+00      -7.180520e-02       7.180330e-02 
       2.600000e+00      -7.180490e-02      -7.181139e-02 
       2.600000e+00       7.180916e-02      -7.181139e-02 
       2.600000e+00       7.180917e-02       7.180268e-02 
       2.600000e+00      -7.180490e-02       7.180268e-02 
       2.600000e+00      -7.180490e-02      -7.181139e-02 
       2.600000e+00       7.180916e-02      -7.181139e-02 
       2.600000e+00       7.180917e-02       7.180268e-02 
       2.600000e+00      -7.180490e-02       7.180268e-02 
       2.800000e+00      -7.180458e-02      -7.181205e-02 
       2.800000e+00       7.180949e-02      -7.181205e-02 
       2.800000e+00       7.180949e-02       7.180201e-02 
       2.800000e+00      -7.180458e-02       7.180201e-02 
       2.800000e+00      -7.180458e-02      -7.181205e-02 
       2.800000e+00       7.180949e-02      -7.181205e-02 
       2.800000e+00       7.180949e-02       7.180201e-02 
       2.800000e+00      -7.180458e-02       7.180201e-02 
       3.000000e+00      -7.180423e-02      -7.181276e-02 
       3.000000e+00       7.180983e-02      -7.181276e-02 
       3.000000e+00       7.180983e-02       7.180131e-02 
       3.000000e+00      -7.180423e-02       7.180131e-02 
       3.000000e+00      -7.180423e-02      -7.181276e-02 
       3.000000e+00       7.180983e-02      -7.181276e-02 
       3.000000e+00       7.180983e-02       7.180131e-02 
       3.000000e+00      -7.180423e-02       7.180131e-02 
       3.200000e+00      -7.180387e-02      -7.181350e-02 
       3.200000e+00       7.181020e-02      -7.181350e-02 
       3.200000e+00       7.181020e-02       7.180056e-02 
       3.200000e+00      -7.180387e-02       7.180056e-02 
       3.200000e+00      -7.180387e-02      -7.181350e-02 
       3.200000e+00       7.181020e-02      -7.181350e-02 
       3.200000e+00       7.181020e-02       7.180056e-02 
       3.200000e+00      -7.180387e-02       7.180056e-02 
       3.400000e+00      -7.180349e-02      -7.181429e-02 
       3.400000e+00       7.181058e-02      -7.181429e-02 
       3.400000e+00       7.181058e-02       7.179978e-02 
       3.400000e+00      -7.180349e-02       7.179978e-02 
       3.400000e+00      -7.180349e-02      -7.181429e-02 
       3.400000e+00       7.181058e-02      -7.181429e-02 
       3.400000e+00       7.181058e-02       7.179978e-02 
       3.400000e+00      -7.180349e-02       7.179978e-02 
       3.600000e+00      -7.180309e-02      -7.181511e-02 
       3.600000e+00       7.181098e-02      -7.181512e-02 
       3.600000e+00       7.181098e-02       7.179895e-02 
       3.600000e+00      -7.180308e-02       7.179895e-02 
       3.600000e+00      -7.180309e-02      -7.181511e-02 
       3.600000e+00       7.181098e-02      -7.181512e-02 
       3.600000e+00       7.181098e-02       7.179895e-02 
       3.600000e+00      -7.180308e-02       7.179895e-02 
       3.800000e+00      -7.180266e-02      -7.181598e-02 
       3.800000e+00       7.181140e-02      -7.181598e-02 
       3.800000e+00       7.181140e-02       7.179809e-02 
       3.800000e+00      -7.180266e-02       7.179809e-02 
       3.800000e+00      -7.180266e-02      -7.181598e-02 
       3.800000e+00       7.181140e-02      -7.181598e-02 
       3.800000e+00       7.181140e-02       7.179809e-02 
       3.800000e+00      -7.180266e-02       7.179809e-02 
       4.000000e+00      -7.180223e-02      -7.181688e-02 
       4.000000e+00       7.181184e-02      -7.181688e-02 
       4.000000e+00       7.181184e-02       7.179719e-02 
       4.000000e+00      -7.180222e-02       7.179719e-02 
       4.000000e+00      -7.180223e-02      -7.181688e-02 
       4.000000e+00       7.181184e-02      -7.181688e-02 
       4.000000e+00       7.181184e-02       7.179719e-02 
       4.000000e+00      -7.180222e-02       7.179719e-02 
       4.200000e+00      -7.180177e-02      -7.181781e-02 
[...]
POINT_DATA       800 
VECTORS Displacements float
       2.36517420e-24      -1.38777878e-17      -1.38777878e-17 
       1.77216130e-23       0.00000000e+00      -1.38777878e-17 
      -2.36517420e-24       1.38777878e-17       1.38777878e-17 
      -1.77216130e-23       0.00000000e+00       1.38777878e-17 
      -1.01959964e-08       1.35895571e-08      -2.77718161e-08 
      -2.97577866e-08       1.35895559e-08      -2.79226124e-08 
       1.01108285e-08       1.37403575e-08      -2.79226179e-08 
       2.96726187e-08       1.37403588e-08      -2.77718217e-08 
      -1.01959964e-08       1.35895571e-08      -2.77718161e-08 
      -2.97577866e-08       1.35895559e-08      -2.79226124e-08 
       1.01108285e-08       1.37403575e-08      -2.79226179e-08 
       2.96726187e-08       1.37403588e-08      -2.77718217e-08 
      -2.02093943e-08       5.41580303e-08      -1.10547848e-07 
      -5.89549149e-08       5.41580251e-08      -1.10849435e-07 
       2.00388790e-08       5.44596337e-08      -1.10849457e-07 
       5.87843996e-08       5.44596389e-08      -1.10547869e-07 
      -2.02093943e-08       5.41580303e-08      -1.10547848e-07 
      -5.89549149e-08       5.41580251e-08      -1.10849435e-07 
       2.00388790e-08       5.44596337e-08      -1.10849457e-07 
       5.87843996e-08       5.44596389e-08      -1.10547869e-07 
      -3.00401918e-08       1.21178925e-07      -2.47292769e-07 
      -8.75913830e-08       1.21178914e-07      -2.47745143e-07 
       2.97841531e-08       1.21631334e-07      -2.47745191e-07 
       8.73353445e-08       1.21631346e-07      -2.47292817e-07 
      -3.00401918e-08       1.21178925e-07      -2.47292769e-07 
      -8.75913830e-08       1.21178914e-07      -2.47745143e-07 
       2.97841531e-08       1.21631334e-07      -2.47745191e-07 
       8.73353445e-08       1.21631346e-07      -2.47292817e-07 
      -3.96883871e-08       2.14125749e-07      -4.36971256e-07 
      -1.15667190e-07       2.14125729e-07      -4.37574411e-07 
       3.93466527e-08       2.14728966e-07      -4.37574495e-07 
       1.15325455e-07       2.14728986e-07      -4.36971340e-07 
      -3.96883871e-08       2.14125749e-07      -4.36971256e-07 
      -1.15667190e-07       2.14125729e-07      -4.37574411e-07 
       3.93466527e-08       2.14728966e-07      -4.37574495e-07 
       1.15325455e-07       2.14728986e-07      -4.36971340e-07 
      -4.91539788e-08       3.32472006e-07      -6.78547983e-07 
      -1.43182333e-07       3.32471975e-07      -6.79301915e-07 
       4.87263794e-08       3.33226033e-07      -6.79302043e-07 
       1.42754733e-07       3.33226064e-07      -6.78548111e-07 
      -4.91539788e-08       3.32472006e-07      -6.78547983e-07 
      -1.43182333e-07       3.32471975e-07      -6.79301915e-07 
       4.87263794e-08       3.33226033e-07      -6.79302043e-07 
       1.42754733e-07       3.33226064e-07      -6.78548111e-07 
      -5.84369648e-08       4.75691203e-07      -9.70987625e-07 
      -1.70136810e-07       4.75691160e-07      -9.71892330e-07 
       5.79233348e-08       4.76596043e-07      -9.71892511e-07 
       1.69623180e-07       4.76596086e-07      -9.70987806e-07 
      -5.84369648e-08       4.75691203e-07      -9.70987625e-07 
      -1.70136810e-07       4.75691160e-07      -9.71892330e-07 
       5.79233348e-08       4.76596043e-07      -9.71892511e-07 
       1.69623180e-07       4.76596086e-07      -9.70987806e-07 
      -6.75373442e-08       6.43256847e-07      -1.31325486e-06 
      -1.96530622e-07       6.43256789e-07      -1.31431033e-06 
       6.69375206e-08       6.44312500e-07      -1.31431057e-06 
       1.95930798e-07       6.44312558e-07      -1.31325510e-06 
      -6.75373442e-08       6.43256847e-07      -1.31325486e-06 
      -1.96530622e-07       6.43256789e-07      -1.31431033e-06 
       6.69375206e-08       6.44312500e-07      -1.31431057e-06 
       1.95930798e-07       6.44312558e-07      -1.31325510e-06 
      -7.64551145e-08       8.34642442e-07      -1.70431435e-06 
      -2.22363764e-07       8.34642368e-07      -1.70552059e-06 
       7.57689389e-08       8.35848912e-07      -1.70552090e-06 
       2.21677589e-07       8.35848986e-07      -1.70431466e-06 
      -7.64551145e-08       8.34642442e-07      -1.70431435e-06 
      -2.22363764e-07       8.34642368e-07      -1.70552059e-06 
       7.57689389e-08       8.35848912e-07      -1.70552090e-06 
       2.21677589e-07       8.35848986e-07      -1.70431466e-06 
      -8.51902744e-08       1.04932150e-06      -2.14313079e-06 
      -2.47636236e-07       1.04932140e-06      -2.14448779e-06 
       8.44175909e-08       1.05067878e-06      -2.14448818e-06 
       2.46863553e-07       1.05067887e-06      -2.14313117e-06 
      -8.51902744e-08       1.04932150e-06      -2.14313079e-06 
      -2.47636236e-07       1.04932140e-06      -2.14448779e-06 
       8.44175909e-08       1.05067878e-06      -2.14448818e-06 
       2.46863553e-07       1.05067887e-06      -2.14313117e-06 
      -9.37428217e-08       1.28676751e-06      -2.62866884e-06 
      -2.72348036e-07       1.28676740e-06      -2.63017660e-06 
       9.28834787e-08       1.28827562e-06      -2.63017707e-06 
       2.71488694e-07       1.28827573e-06      -2.62866930e-06 
      -9.37428219e-08       1.28676751e-06      -2.62866884e-06 
      -2.72348037e-07       1.28676740e-06      -2.63017660e-06 
       9.28834787e-08       1.28827562e-06      -2.63017707e-06 
       2.71488693e-07       1.28827573e-06      -2.62866930e-06 
      -1.02107408e-07       1.54647151e-06      -3.15991946e-06 
      -2.96514244e-07       1.54647138e-06      -3.16156202e-06 
       1.01190486e-07       1.54811447e-06      -3.16156257e-06 
       2.95597322e-07       1.54811460e-06      -3.15992001e-06 
      -1.02107408e-07       1.54647151e-06      -3.15991946e-06 
      -2.96514244e-07       1.54647138e-06      -3.16156202e-06 
       1.01190486e-07       1.54811447e-06      -3.16156257e-06 
       2.95597322e-07       1.54811460e-06      -3.15992001e-06 
      -1.10307310e-07       1.82794612e-06      -3.73592830e-06 
      -3.20178198e-07       1.82794597e-06      -3.73770564e-06 
       1.09332410e-07       1.82972394e-06      -3.73770628e-06 
       3.19203298e-07       1.82972410e-06      -3.73592894e-06 
      -1.10307310e-07       1.82794612e-06      -3.73592830e-06 
      -3.20178198e-07       1.82794597e-06      -3.73770564e-06 
       1.09332410e-07       1.82972394e-06      -3.73770628e-06 
       3.19203298e-07       1.82972410e-06      -3.73592894e-06 
      -1.18342524e-07       2.13072125e-06      -4.35576600e-06 
      -3.43339894e-07       2.13072107e-06      -4.35767813e-06 
       1.17309254e-07       2.13263393e-06      -4.35767887e-06 
       3.42306624e-07       2.13263410e-06      -4.35576674e-06 
      -1.18342524e-07       2.13072125e-06      -4.35576600e-06 
      -3.43339894e-07       2.13072107e-06      -4.35767813e-06 
       1.17309254e-07       2.13263393e-06      -4.35767887e-06 
       3.42306624e-07       2.13263410e-06      -4.35576674e-06 
      -1.26213046e-07       2.45432678e-06      -5.01850322e-06 
      -3.65999329e-07       2.45432658e-06      -5.02055014e-06 
       1.25121025e-07       2.45637432e-06      -5.02055098e-06 
       3.64907307e-07       2.45637452e-06      -5.01850406e-06 
      -1.26213046e-07       2.45432678e-06      -5.01850322e-06 
      -3.65999329e-07       2.45432658e-06      -5.02055014e-06 
       1.25121025e-07       2.45637432e-06      -5.02055098e-06 
       3.64907307e-07       2.45637452e-06      -5.01850406e-06 
      -1.33918873e-07       2.79829261e-06      -5.72321062e-06 
      -3.88156498e-07       2.79829239e-06      -5.72539232e-06 
       1.32767723e-07       2.80047501e-06      -5.72539326e-06 
       3.87005349e-07       2.80047524e-06      -5.72321156e-06 
      -1.33918873e-07       2.79829261e-06      -5.72321062e-06 
      -3.88156498e-07       2.79829239e-06      -5.72539232e-06 
       1.32767723e-07       2.80047501e-06      -5.72539326e-06 
       3.87005349e-07       2.80047524e-06      -5.72321156e-06 
      -1.41459999e-07       3.16214863e-06      -6.46895884e-06 
      -4.09811397e-07       3.16214838e-06      -6.47127532e-06 
       1.40249356e-07       3.16446589e-06      -6.47127638e-06 
       4.08600754e-07       3.16446614e-06      -6.46895989e-06 
      -1.41459999e-07       3.16214863e-06      -6.46895884e-06 
      -4.09811397e-07       3.16214838e-06      -6.47127532e-06 
       1.40249356e-07       3.16446589e-06      -6.47127638e-06 
       4.08600754e-07       3.16446614e-06      -6.46895989e-06 
      -1.48836420e-07       3.54542474e-06      -7.25481854e-06 
      -4.30964021e-07       3.54542446e-06      -7.25726980e-06 
       1.47565927e-07       3.54787686e-06      -7.25727097e-06 
       4.29693528e-07       3.54787714e-06      -7.25481970e-06 
      -1.48836420e-07       3.54542474e-06      -7.25481854e-06 
      -4.30964021e-07       3.54542446e-06      -7.25726980e-06 
       1.47565927e-07       3.54787686e-06      -7.25727097e-06 
       4.29693528e-07       3.54787714e-06      -7.25481970e-06 
      -1.56048132e-07       3.94765083e-06      -8.07986037e-06 
      -4.51614368e-07       3.94765052e-06      -8.08244641e-06 
       1.54717438e-07       3.95023781e-06      -8.08244769e-06 
       4.50283673e-07       3.95023812e-06      -8.07986165e-06 
      -1.56048132e-07       3.94765083e-06      -8.07986037e-06 
      -4.51614368e-07       3.94765052e-06      -8.08244641e-06 
       1.54717438e-07       3.95023781e-06      -8.08244769e-06 
       4.50283673e-07       3.95023812e-06      -8.07986165e-06 
      -1.63095131e-07       4.36835678e-06      -8.94315499e-06 
      -4.71762431e-07       4.36835645e-06      -8.94587581e-06 
       1.61703896e-07       4.37107863e-06      -8.94587721e-06 
       4.70371195e-07       4.37107896e-06      -8.94315639e-06 
      -1.63095131e-07       4.36835678e-06      -8.94315499e-06 
      -4.71762431e-07       4.36835645e-06      -8.94587581e-06 
       1.61703896e-07       4.37107863e-06      -8.94587721e-06 
       4.70371195e-07       4.37107896e-06      -8.94315639e-06 
      -1.69977414e-07       4.80707250e-06      -9.84377304e-06 
      -4.91408207e-07       4.80707214e-06      -9.84662864e-06 
       1.68525305e-07       4.80992922e-06      -9.84663016e-06 
       4.89956098e-07       4.80992958e-06      -9.84377456e-06 
      -1.69977414e-07       4.80707250e-06      -9.84377304e-06 
      -4.91408207e-07       4.80707214e-06      -9.84662864e-06 
       1.68525305e-07       4.80992922e-06      -9.84663016e-06 
       4.89956098e-07       4.80992958e-06      -9.84377456e-06 
      -1.76693549e-07       5.26334529e-06      -1.07808109e-05 
      -5.10570534e-07       5.26334491e-06      -1.07837854e-05 
       1.75200870e-07       5.26632094e-06      -1.07837870e-05 
       5.09077855e-07       5.26632133e-06      -1.07808126e-05 
      -1.76693549e-07       5.26334529e-06      -1.07808109e-05 
      -5.10570534e-07       5.26334491e-06      -1.07837854e-05 
       1.75200870e-07       5.26632094e-06      -1.07837870e-05 
       5.09077855e-07       5.26632133e-06      -1.07808126e-05 
      -1.83262427e-07       5.73674388e-06      -1.17534188e-05 
      -5.29288277e-07       5.73674346e-06      -1.17565121e-05 
       1.81728701e-07       5.73983846e-06      -1.17565138e-05 
       5.27754550e-07       5.73983887e-06      -1.17534206e-05 
      -1.83262427e-07       5.73674388e-06      -1.17534188e-05 
      -5.29288277e-07       5.73674346e-06      -1.17565121e-05 
       1.81728701e-07       5.73983846e-06      -1.17565138e-05 
       5.27754550e-07       5.73983887e-06      -1.17534206e-05 
      -1.89684042e-07       6.22685420e-06      -1.27607717e-05 
      -5.47561429e-07       6.22685375e-06      -1.27639839e-05 
       1.88108804e-07       6.23006771e-06      -1.27639857e-05 
       5.45986190e-07       6.23006815e-06      -1.27607736e-05 
      -1.89684042e-07       6.22685420e-06      -1.27607717e-05 
      -5.47561429e-07       6.22685375e-06      -1.27639839e-05 
       1.88108804e-07       6.23006771e-06      -1.27639857e-05 
       5.45986190e-07       6.23006815e-06      -1.27607736e-05 
      -1.95958390e-07       6.73326219e-06      -1.38020449e-05 
      -5.65389985e-07       6.73326171e-06      -1.38053759e-05 
       1.94341183e-07       6.73659463e-06      -1.38053779e-05 
       5.63772779e-07       6.73659510e-06      -1.38020469e-05 
      -1.95958390e-07       6.73326219e-06      -1.38020449e-05 
      -5.65389985e-07       6.73326171e-06      -1.38053759e-05 
       1.94341183e-07       6.73659463e-06      -1.38053779e-05 
       5.63772779e-07       6.73659510e-06      -1.38020469e-05 
      -2.02085465e-07       7.25555378e-06      -1.48764134e-05 
      -5.82773940e-07       7.25555327e-06      -1.48798632e-05 
       2.00425846e-07       7.25900515e-06      -1.48798653e-05 
       5.81114322e-07       7.25900565e-06      -1.48764155e-05 
      -2.02085465e-07       7.25555378e-06      -1.48764134e-05 
      -5.82773940e-07       7.25555327e-06      -1.48798632e-05 
       2.00425846e-07       7.25900515e-06      -1.48798653e-05 
       5.81114322e-07       7.25900565e-06      -1.48764155e-05 
      -2.08065260e-07       7.79331490e-06      -1.59830523e-05 
      -5.99713288e-07       7.79331437e-06      -1.59866210e-05 
       2.06362797e-07       7.79688521e-06      -1.59866232e-05 
       5.98010825e-07       7.79688574e-06      -1.59830546e-05 
      -2.08065260e-07       7.79331490e-06      -1.59830523e-05 
      -5.99713288e-07       7.79331437e-06      -1.59866210e-05 
       2.06362797e-07       7.79688521e-06      -1.59866232e-05 
       5.98010825e-07       7.79688574e-06      -1.59830546e-05 
      -2.13897771e-07       8.34613150e-06      -1.71211368e-05 
      -6.16208023e-07       8.34613093e-06      -1.71248243e-05 
       2.12152042e-07       8.34982073e-06      -1.71248267e-05 
       6.14462294e-07       8.34982130e-06      -1.71211392e-05 
      -2.13897771e-07       8.34613150e-06      -1.71211368e-05 
      -6.16208023e-07       8.34613093e-06      -1.71248243e-05 
       2.12152042e-07       8.34982073e-06      -1.71248267e-05 
       6.14462294e-07       8.34982130e-06      -1.71211392e-05 
      -2.19582990e-07       8.91358950e-06      -1.82898421e-05 
      -6.32258139e-07       8.91358891e-06      -1.82936484e-05 
       2.17793587e-07       8.91739767e-06      -1.82936509e-05 
       6.30468736e-07       8.91739826e-06      -1.82898446e-05 
      -2.19582990e-07       8.91358950e-06      -1.82898421e-05 
      -6.32258139e-07       8.91358891e-06      -1.82936484e-05 
       2.17793587e-07       8.91739767e-06      -1.82936509e-05 
       6.30468736e-07       8.91739826e-06      -1.82898446e-05 
      -2.25120915e-07       9.49527484e-06      -1.94883431e-05 
      -6.47863633e-07       9.49527422e-06      -1.94922683e-05 
       2.23287437e-07       9.49920194e-06      -1.94922709e-05 
       6.46030154e-07       9.49920257e-06      -1.94883458e-05 
      -2.25120915e-07       9.49527484e-06      -1.94883431e-05 
      -6.47863633e-07       9.49527422e-06      -1.94922683e-05 
       2.23287437e-07       9.49920194e-06      -1.94922709e-05 
       6.46030154e-07       9.49920257e-06      -1.94883458e-05 
      -2.30511539e-07       1.00907735e-05      -2.07158152e-05 
      -6.63024497e-07       1.00907728e-05      -2.07198592e-05 
       2.28633596e-07       1.00948195e-05      -2.07198619e-05 
       6.61146554e-07       1.00948201e-05      -2.07158179e-05 
      -2.30511539e-07       1.00907735e-05      -2.07158152e-05 
      -6.63024498e-07       1.00907728e-05      -2.07198592e-05 
       2.28633596e-07       1.00948195e-05      -2.07198619e-05 
       6.61146554e-07       1.00948201e-05      -2.07158179e-05 
      -2.35756526e-07       1.06996886e-05      -2.19714586e-05 
      -6.77762533e-07       1.06996879e-05      -2.19756056e-05 
       2.33847675e-07       1.07038377e-05      -2.19756084e-05 
       6.75853682e-07       1.07038384e-05      -2.19714615e-05 
      -2.35756526e-07       1.06996886e-05      -2.19714586e-05 
      -6.77762533e-07       1.06996879e-05      -2.19756056e-05 
       2.33847675e-07       1.07038377e-05      -2.19756084e-05 
       6.75853682e-07       1.07038384e-05      -2.19714615e-05 
      -2.40871479e-07       1.13216448e-05      -2.32545273e-05 
      -6.92113253e-07       1.13216441e-05      -2.32587771e-05 
       2.38931257e-07       1.13258969e-05      -2.32587801e-05 
       6.90173032e-07       1.13258976e-05      -2.32545303e-05 
      -2.40871479e-07       1.13216448e-05      -2.32545273e-05 
      -6.92113253e-07       1.13216441e-05      -2.32587771e-05 
       2.38931257e-07       1.13258969e-05      -2.32587801e-05 
       6.90173032e-07       1.13258976e-05      -2.32545303e-05 
      -2.45856389e-07       1.19562838e-05      -2.45643000e-05 
      -7.06076648e-07       1.19562831e-05      -2.45686528e-05 
       2.43884349e-07       1.19606390e-05      -2.45686559e-05 
       7.04104608e-07       1.19606397e-05      -2.45643031e-05 
      -2.45856389e-07       1.19562838e-05      -2.45643000e-05 
      -7.06076648e-07       1.19562831e-05      -2.45686528e-05 
       2.43884349e-07       1.19606390e-05      -2.45686559e-05 
       7.04104608e-07       1.19606397e-05      -2.45643031e-05 
      -2.50711254e-07       1.26032473e-05      -2.59000556e-05 
      -7.19652714e-07       1.26032466e-05      -2.59045113e-05 
       2.48706955e-07       1.26077055e-05      -2.59045146e-05 
       7.17648415e-07       1.26077062e-05      -2.59000589e-05 
      -2.50711254e-07       1.26032473e-05      -2.59000556e-05 
      -7.19652714e-07       1.26032466e-05      -2.59045113e-05 
       2.48706955e-07       1.26077055e-05      -2.59045146e-05 
       7.17648415e-07       1.26077062e-05      -2.59000589e-05 
      -2.55436066e-07       1.32621770e-05      -2.72610731e-05 
      -7.32841444e-07       1.32621762e-05      -2.72656317e-05 
       2.53399083e-07       1.32667381e-05      -2.72656351e-05 
       7.30804462e-07       1.32667389e-05      -2.72610765e-05 
      -2.55436066e-07       1.32621770e-05      -2.72610731e-05 
      -7.32841444e-07       1.32621762e-05      -2.72656317e-05 
       2.53399083e-07       1.32667381e-05      -2.72656351e-05 
       7.30804462e-07       1.32667389e-05      -2.72610765e-05 
      -2.60030818e-07       1.39327145e-05      -2.86466312e-05 
      -7.45642834e-07       1.39327137e-05      -2.86512928e-05 
       2.57960738e-07       1.39373787e-05      -2.86512964e-05 
       7.43572754e-07       1.39373795e-05      -2.86466347e-05 
      -2.60030818e-07       1.39327145e-05      -2.86466312e-05 
      -7.45642834e-07       1.39327137e-05      -2.86512928e-05 
       2.57960738e-07       1.39373787e-05      -2.86512964e-05 
       7.43572754e-07       1.39373795e-05      -2.86466347e-05 
      -2.64495505e-07       1.46145017e-05      -3.00560090e-05 
      -7.58056874e-07       1.46145008e-05      -3.00607735e-05 
       2.62391927e-07       1.46192689e-05      -3.00607772e-05 
       7.55953296e-07       1.46192697e-05      -3.00560126e-05 
      -2.64495505e-07       1.46145017e-05      -3.00560090e-05 
      -7.58056874e-07       1.46145008e-05      -3.00607735e-05 
       2.62391927e-07       1.46192689e-05      -3.00607772e-05 
       7.55953296e-07       1.46192697e-05      -3.00560126e-05 
      -2.68830120e-07       1.53071801e-05      -3.14884852e-05 
      -7.70083560e-07       1.53071792e-05      -3.14933527e-05 
       2.66692656e-07       1.53120503e-05      -3.14933565e-05 
       7.67946097e-07       1.53120512e-05      -3.14884890e-05 
      -2.68830120e-07       1.53071801e-05      -3.14884852e-05 
      -7.70083560e-07       1.53071792e-05      -3.14933527e-05 