# vtk DataFile Version 2.0
./output/onsasExample_BladeCantileverBeamPitch_windVel3DDynamic 3D/onsasExample_BladeCantileverBeamPitch_windVel3DDynamic 3D_0151.vtk
ASCII
DATASET UNSTRUCTURED_GRID

POINTS 800 float
      -2.944133e-23      -7.180703e-02      -7.180703e-02 
      -6.637140e-23       7.180703e-02      -7.180703e-02 
       2.944133e-23       7.180703e-02       7.180703e-02 
       6.637140e-23      -7.180703e-02       7.180703e-02 
       2.000000e-01      -7.180702e-02      -7.180706e-02 
       2.000000e-01       7.180705e-02      -7.180706e-02 
       2.000000e-01       7.180705e-02       7.180701e-02 
       2.000000e-01      -7.180702e-02       7.180701e-02 
       2.000000e-01      -7.180702e-02      -7.180706e-02 
       2.000000e-01       7.180705e-02      -7.180706e-02 
       2.000000e-01       7.180705e-02       7.180701e-02 
       2.000000e-01      -7.180702e-02       7.180701e-02 
       4.000000e-01      -7.180698e-02      -7.180714e-02 
       3.999999e-01       7.180709e-02      -7.180714e-02 
       4.000000e-01       7.180709e-02       7.180692e-02 
       4.000001e-01      -7.180698e-02       7.180692e-02 
       4.000000e-01      -7.180698e-02      -7.180714e-02 
       3.999999e-01       7.180709e-02      -7.180714e-02 
       4.000000e-01       7.180709e-02       7.180692e-02 
       4.000001e-01      -7.180698e-02       7.180692e-02 
       6.000000e-01      -7.180691e-02      -7.180728e-02 
       5.999999e-01       7.180715e-02      -7.180728e-02 
       6.000000e-01       7.180716e-02       7.180679e-02 
       6.000001e-01      -7.180691e-02       7.180679e-02 
       6.000000e-01      -7.180691e-02      -7.180728e-02 
       5.999999e-01       7.180715e-02      -7.180728e-02 
       6.000000e-01       7.180716e-02       7.180679e-02 
       6.000001e-01      -7.180691e-02       7.180679e-02 
       8.000000e-01      -7.180682e-02      -7.180747e-02 
       7.999999e-01       7.180725e-02      -7.180747e-02 
       8.000000e-01       7.180725e-02       7.180660e-02 
       8.000001e-01      -7.180682e-02       7.180660e-02 
       8.000000e-01      -7.180682e-02      -7.180747e-02 
       7.999999e-01       7.180725e-02      -7.180747e-02 
       8.000000e-01       7.180725e-02       7.180660e-02 
       8.000001e-01      -7.180682e-02       7.180660e-02 
       1.000000e+00      -7.180670e-02      -7.180771e-02 
       9.999999e-01       7.180737e-02      -7.180771e-02 
       1.000000e+00       7.180737e-02       7.180635e-02 
       1.000000e+00      -7.180670e-02       7.180636e-02 
       1.000000e+00      -7.180670e-02      -7.180771e-02 
       9.999999e-01       7.180737e-02      -7.180771e-02 
       1.000000e+00       7.180737e-02       7.180635e-02 
       1.000000e+00      -7.180670e-02       7.180636e-02 
       1.200000e+00      -7.180656e-02      -7.180800e-02 
       1.200000e+00       7.180751e-02      -7.180800e-02 
       1.200000e+00       7.180751e-02       7.180606e-02 
       1.200000e+00      -7.180655e-02       7.180606e-02 
       1.200000e+00      -7.180656e-02      -7.180800e-02 
       1.200000e+00       7.180751e-02      -7.180800e-02 
       1.200000e+00       7.180751e-02       7.180606e-02 
       1.200000e+00      -7.180655e-02       7.180606e-02 
       1.400000e+00      -7.180639e-02      -7.180834e-02 
       1.400000e+00       7.180768e-02      -7.180835e-02 
       1.400000e+00       7.180768e-02       7.180572e-02 
       1.400000e+00      -7.180639e-02       7.180572e-02 
       1.400000e+00      -7.180639e-02      -7.180834e-02 
       1.400000e+00       7.180768e-02      -7.180835e-02 
       1.400000e+00       7.180768e-02       7.180572e-02 
       1.400000e+00      -7.180639e-02       7.180572e-02 
       1.600000e+00      -7.180620e-02      -7.180873e-02 
       1.600000e+00       7.180787e-02      -7.180874e-02 
       1.600000e+00       7.180787e-02       7.180533e-02 
       1.600000e+00      -7.180619e-02       7.180533e-02 
       1.600000e+00      -7.180620e-02      -7.180873e-02 
       1.600000e+00       7.180787e-02      -7.180874e-02 
       1.600000e+00       7.180787e-02       7.180533e-02 
       1.600000e+00      -7.180619e-02       7.180533e-02 
       1.800000e+00      -7.180598e-02      -7.180917e-02 
       1.800000e+00       7.180809e-02      -7.180917e-02 
       1.800000e+00       7.180809e-02       7.180489e-02 
       1.800000e+00      -7.180598e-02       7.180489e-02 
       1.800000e+00      -7.180598e-02      -7.180917e-02 
       1.800000e+00       7.180809e-02      -7.180917e-02 
       1.800000e+00       7.180809e-02       7.180489e-02 
       1.800000e+00      -7.180598e-02       7.180489e-02 
       2.000000e+00      -7.180574e-02      -7.180966e-02 
       2.000000e+00       7.180832e-02      -7.180966e-02 
       2.000000e+00       7.180833e-02       7.180441e-02 
       2.000000e+00      -7.180574e-02       7.180441e-02 
       2.000000e+00      -7.180574e-02      -7.180966e-02 
       2.000000e+00       7.180832e-02      -7.180966e-02 
       2.000000e+00       7.180833e-02       7.180441e-02 
       2.000000e+00      -7.180574e-02       7.180441e-02 
       2.200000e+00      -7.180548e-02      -7.181019e-02 
       2.200000e+00       7.180859e-02      -7.181019e-02 
       2.200000e+00       7.180859e-02       7.180388e-02 
       2.200000e+00      -7.180548e-02       7.180388e-02 
       2.200000e+00      -7.180548e-02      -7.181019e-02 
       2.200000e+00       7.180859e-02      -7.181019e-02 
       2.200000e+00       7.180859e-02       7.180388e-02 
       2.200000e+00      -7.180548e-02       7.180388e-02 
       2.400000e+00      -7.180520e-02      -7.181076e-02 
       2.400000e+00       7.180887e-02      -7.181076e-02 
       2.400000e+00       7.180887e-02       7.180330e-02 
       2.400000e+00      -7.180520e-02       7.180331e-02 
       2.400000e+00      -7.180520e-02      -7.181076e-02 
       2.400000e+00       7.180887e-02      -7.181076e-02 
       2.400000e+00       7.180887e-02       7.180330e-02 
       2.400000e+00      -7.180520e-02       7.180331e-02 
       2.600000e+00      -7.180489e-02      -7.181138e-02 
       2.600000e+00       7.180917e-02      -7.181138e-02 
       2.600000e+00       7.180917e-02       7.180269e-02 
       2.600000e+00      -7.180489e-02       7.180269e-02 
       2.600000e+00      -7.180489e-02      -7.181138e-02 
       2.600000e+00       7.180917e-02      -7.181138e-02 
       2.600000e+00       7.180917e-02       7.180269e-02 
       2.600000e+00      -7.180489e-02       7.180269e-02 
       2.800000e+00      -7.180457e-02      -7.181204e-02 
       2.800000e+00       7.180950e-02      -7.181204e-02 
       2.800000e+00       7.180950e-02       7.180202e-02 
       2.800000e+00      -7.180457e-02       7.180203e-02 
       2.800000e+00      -7.180457e-02      -7.181204e-02 
       2.800000e+00       7.180950e-02      -7.181204e-02 
       2.800000e+00       7.180950e-02       7.180202e-02 
       2.800000e+00      -7.180457e-02       7.180203e-02 
       3.000000e+00      -7.180422e-02      -7.181274e-02 
       3.000000e+00       7.180984e-02      -7.181274e-02 
       3.000000e+00       7.180984e-02       7.180132e-02 
       3.000000e+00      -7.180422e-02       7.180132e-02 
       3.000000e+00      -7.180422e-02      -7.181274e-02 
       3.000000e+00       7.180984e-02      -7.181274e-02 
       3.000000e+00       7.180984e-02       7.180132e-02 
       3.000000e+00      -7.180422e-02       7.180132e-02 
       3.200000e+00      -7.180386e-02      -7.181349e-02 
       3.200000e+00       7.181021e-02      -7.181349e-02 
       3.200000e+00       7.181021e-02       7.180058e-02 
       3.200000e+00      -7.180386e-02       7.180058e-02 
       3.200000e+00      -7.180386e-02      -7.181349e-02 
       3.200000e+00       7.181021e-02      -7.181349e-02 
       3.200000e+00       7.181021e-02       7.180058e-02 
       3.200000e+00      -7.180386e-02       7.180058e-02 
       3.400000e+00      -7.180347e-02      -7.181427e-02 
       3.400000e+00       7.181059e-02      -7.181427e-02 
       3.400000e+00       7.181059e-02       7.179979e-02 
       3.400000e+00      -7.180347e-02       7.179980e-02 
       3.400000e+00      -7.180347e-02      -7.181427e-02 
       3.400000e+00       7.181059e-02      -7.181427e-02 
       3.400000e+00       7.181059e-02       7.179979e-02 
       3.400000e+00      -7.180347e-02       7.179980e-02 
       3.600000e+00      -7.180307e-02      -7.181509e-02 
       3.600000e+00       7.181100e-02      -7.181509e-02 
       3.600000e+00       7.181100e-02       7.179897e-02 
       3.600000e+00      -7.180307e-02       7.179898e-02 
       3.600000e+00      -7.180307e-02      -7.181509e-02 
       3.600000e+00       7.181100e-02      -7.181509e-02 
       3.600000e+00       7.181100e-02       7.179897e-02 
       3.600000e+00      -7.180307e-02       7.179898e-02 
       3.800000e+00      -7.180265e-02      -7.181595e-02 
       3.800000e+00       7.181142e-02      -7.181595e-02 
       3.800000e+00       7.181142e-02       7.179811e-02 
       3.800000e+00      -7.180265e-02       7.179812e-02 
       3.800000e+00      -7.180265e-02      -7.181595e-02 
       3.800000e+00       7.181142e-02      -7.181595e-02 
       3.800000e+00       7.181142e-02       7.179811e-02 
       3.800000e+00      -7.180265e-02       7.179812e-02 
       4.000000e+00      -7.180221e-02      -7.181685e-02 
       4.000000e+00       7.181186e-02      -7.181685e-02 
       4.000000e+00       7.181186e-02       7.179722e-02 
       4.000000e+00      -7.180220e-02       7.179722e-02 
       4.000000e+00      -7.180221e-02      -7.181685e-02 
       4.000000e+00       7.181186e-02      -7.181685e-02 
       4.000000e+00       7.181186e-02       7.179722e-02 
       4.000000e+00      -7.180220e-02       7.179722e-02 
       4.200000e+00      -7.180175e-02      -7.181778e-02 
[...]
POINT_DATA       800 
VECTORS Displacements float
      -2.94413319e-23       0.00000000e+00      -1.38777878e-17 
      -6.63713965e-23       0.00000000e+00      -1.38777878e-17 
       2.94413319e-23       0.00000000e+00       1.38777878e-17 
       6.63713965e-23       0.00000000e+00       1.38777878e-17 
      -1.01321234e-08       1.36402014e-08      -2.77332221e-08 
      -2.97671552e-08       1.36402000e-08      -2.78849454e-08 
       1.00455084e-08       1.37919287e-08      -2.78849509e-08 
       2.96805401e-08       1.37919301e-08      -2.77332276e-08 
      -1.01321234e-08       1.36402014e-08      -2.77332221e-08 
      -2.97671552e-08       1.36402000e-08      -2.78849454e-08 
       1.00455084e-08       1.37919287e-08      -2.78849509e-08 
       2.96805401e-08       1.37919301e-08      -2.77332276e-08 
      -2.00785448e-08       5.43606635e-08      -1.10387766e-07 
      -5.89696108e-08       5.43606583e-08      -1.10691207e-07 
       1.99051357e-08       5.46641209e-08      -1.10691229e-07 
       5.87962016e-08       5.46641262e-08      -1.10387787e-07 
      -2.00785448e-08       5.43606635e-08      -1.10387766e-07 
      -5.89696108e-08       5.43606583e-08      -1.10691207e-07 
       1.99051357e-08       5.46641209e-08      -1.10691229e-07 
       5.87962016e-08       5.46641262e-08      -1.10387787e-07 
      -2.98392623e-08       1.21633587e-07      -2.46918356e-07 
      -8.76073651e-08       1.21633575e-07      -2.47373510e-07 
       2.95788832e-08       1.22088776e-07      -2.47373558e-07 
       8.73469863e-08       1.22088788e-07      -2.46918404e-07 
      -2.98392623e-08       1.21633587e-07      -2.46918356e-07 
      -8.76073651e-08       1.21633575e-07      -2.47373510e-07 
       2.95788832e-08       1.22088776e-07      -2.47373558e-07 
       8.73469863e-08       1.22088788e-07      -2.46918404e-07 
      -3.94142743e-08       2.14931171e-07      -4.36279719e-07 
      -1.15680417e-07       2.14931150e-07      -4.36886581e-07 
       3.90667534e-08       2.15538095e-07      -4.36886665e-07 
       1.15332896e-07       2.15538116e-07      -4.36279802e-07 
      -3.94142743e-08       2.14931171e-07      -4.36279719e-07 
      -1.15680417e-07       2.14931150e-07      -4.36886581e-07 
       3.90667534e-08       2.15538095e-07      -4.36886665e-07 
       1.15332896e-07       2.15538116e-07      -4.36279802e-07 
      -4.88035793e-08       3.33725616e-07      -6.77426579e-07 
      -1.43188763e-07       3.33725585e-07      -6.78185146e-07 
       4.83687472e-08       3.34484277e-07      -6.78185274e-07 
       1.42753931e-07       3.34484309e-07      -6.77426707e-07 
      -4.88035793e-08       3.33725616e-07      -6.77426579e-07 
      -1.43188763e-07       3.33725585e-07      -6.78185146e-07 
       4.83687472e-08       3.34484277e-07      -6.78185274e-07 
       1.42753931e-07       3.34484309e-07      -6.77426707e-07 
      -5.80071753e-08       4.77489122e-07      -9.69313663e-07 
      -1.70132404e-07       4.77489078e-07      -9.70223930e-07 
       5.74848669e-08       4.78399523e-07      -9.70224110e-07 
       1.69610095e-07       4.78399567e-07      -9.69313843e-07 
      -5.80071753e-08       4.77489122e-07      -9.69313663e-07 
      -1.70132404e-07       4.77489078e-07      -9.70223930e-07 
       5.74848669e-08       4.78399523e-07      -9.70224110e-07 
       1.69610095e-07       4.78399567e-07      -9.69313843e-07 
      -6.70250606e-08       6.45693889e-07      -1.31089570e-06 
      -1.96511336e-07       6.45693831e-07      -1.31195766e-06 
       6.64151134e-08       6.46756031e-07      -1.31195790e-06 
       1.95901389e-07       6.46756090e-07      -1.31089594e-06 
      -6.70250606e-08       6.45693889e-07      -1.31089570e-06 
      -1.96511336e-07       6.45693831e-07      -1.31195766e-06 
       6.64151134e-08       6.46756031e-07      -1.31195790e-06 
       1.95901389e-07       6.46756090e-07      -1.31089594e-06 
      -7.58572332e-08       8.37812118e-07      -1.70112740e-06 
      -2.22325558e-07       8.37812043e-07      -1.70234106e-06 
       7.51594895e-08       8.39026003e-07      -1.70234137e-06 
       2.21627815e-07       8.39026078e-07      -1.70112771e-06 
      -7.58572332e-08       8.37812118e-07      -1.70112740e-06 
      -2.22325558e-07       8.37812043e-07      -1.70234106e-06 
       7.51594895e-08       8.39026003e-07      -1.70234137e-06 
       2.21627815e-07       8.39026078e-07      -1.70112771e-06 
      -8.45036923e-08       1.05331601e-06      -2.13896351e-06 
      -2.47575069e-07       1.05331592e-06      -2.14032885e-06 
       8.37179965e-08       1.05468164e-06      -2.14032924e-06 
       2.46789373e-07       1.05468173e-06      -2.13896389e-06 
      -8.45036923e-08       1.05331601e-06      -2.13896351e-06 
      -2.47575069e-07       1.05331592e-06      -2.14032885e-06 
       8.37179965e-08       1.05468164e-06      -2.14032924e-06 
       2.46789373e-07       1.05468173e-06      -2.13896389e-06 
      -9.29644355e-08       1.29167776e-06      -2.62335874e-06 
      -2.72259867e-07       1.29167765e-06      -2.62487577e-06 
       9.20906356e-08       1.29319514e-06      -2.62487623e-06 
       2.71386067e-07       1.29319525e-06      -2.62335920e-06 
      -9.29644355e-08       1.29167776e-06      -2.62335874e-06 
      -2.72259867e-07       1.29167765e-06      -2.62487577e-06 
       9.20906356e-08       1.29319514e-06      -2.62487623e-06 
       2.71386067e-07       1.29319525e-06      -2.62335920e-06 
      -1.01232509e-07       1.55238654e-06      -3.15329163e-06 
      -2.96392475e-07       1.55238641e-06      -3.15494434e-06 
       1.00299891e-07       1.55403966e-06      -3.15494489e-06 
       2.95459857e-07       1.55403979e-06      -3.15329218e-06 
      -1.01232509e-07       1.55238654e-06      -3.15329163e-06 
      -2.96392475e-07       1.55238641e-06      -3.15494434e-06 
       1.00299891e-07       1.55403966e-06      -3.15494489e-06 
       2.95459857e-07       1.55403979e-06      -3.15329218e-06 
      -1.09332111e-07       1.83495230e-06      -3.72779328e-06 
      -3.20017230e-07       1.83495214e-06      -3.72958166e-06 
       1.08340277e-07       1.83674115e-06      -3.72958230e-06 
       3.19025396e-07       1.83674130e-06      -3.72779392e-06 
      -1.09332111e-07       1.83495230e-06      -3.72779328e-06 
      -3.20017230e-07       1.83495214e-06      -3.72958166e-06 
       1.08340277e-07       1.83674115e-06      -3.72958230e-06 
       3.19025396e-07       1.83674130e-06      -3.72779392e-06 
      -1.17263236e-07       2.13890239e-06      -4.34592127e-06 
      -3.43134129e-07       2.13890222e-06      -4.34784531e-06 
       1.16211796e-07       2.14082699e-06      -4.34784605e-06 
       3.42082689e-07       2.14082716e-06      -4.34592200e-06 
      -1.17263236e-07       2.13890239e-06      -4.34592127e-06 
      -3.43134129e-07       2.13890222e-06      -4.34784531e-06 
       1.16211796e-07       2.14082699e-06      -4.34784605e-06 
       3.42082689e-07       2.14082716e-06      -4.34592200e-06 
      -1.25025879e-07       2.46376421e-06      -5.00673317e-06 
      -3.65743167e-07       2.46376400e-06      -5.00879289e-06 
       1.23914453e-07       2.46582454e-06      -5.00879372e-06 
       3.64631741e-07       2.46582474e-06      -5.00673401e-06 
      -1.25025879e-07       2.46376421e-06      -5.00673317e-06 
      -3.65743167e-07       2.46376400e-06      -5.00879289e-06 
       1.23914453e-07       2.46582454e-06      -5.00879372e-06 
       3.64631741e-07       2.46582474e-06      -5.00673401e-06 
      -1.32620038e-07       2.80906511e-06      -5.70928658e-06 
      -3.87844340e-07       2.80906488e-06      -5.71148196e-06 
       1.31448252e-07       2.81126118e-06      -5.71148290e-06 
       3.86672554e-07       2.81126141e-06      -5.70928752e-06 
      -1.32620038e-07       2.80906511e-06      -5.70928658e-06 
      -3.87844340e-07       2.80906488e-06      -5.71148196e-06 
       1.31448252e-07       2.81126118e-06      -5.71148290e-06 
       3.86672554e-07       2.81126141e-06      -5.70928752e-06 
      -1.40045707e-07       3.17433247e-06      -6.45263907e-06 
      -4.09437644e-07       3.17433222e-06      -6.45497011e-06 
       1.38813198e-07       3.17666429e-06      -6.45497116e-06 
       4.08205135e-07       3.17666454e-06      -6.45264012e-06 
      -1.40045707e-07       3.17433247e-06      -6.45263907e-06 
      -4.09437644e-07       3.17433222e-06      -6.45497011e-06 
       1.38813198e-07       3.17666429e-06      -6.45497116e-06 
       4.08205135e-07       3.17666454e-06      -6.45264012e-06 
      -1.47302882e-07       3.55909367e-06      -7.23584822e-06 
      -4.30523074e-07       3.55909339e-06      -7.23831493e-06 
       1.46009295e-07       3.56156123e-06      -7.23831609e-06 
       4.29229486e-07       3.56156151e-06      -7.23584938e-06 
      -1.47302882e-07       3.55909367e-06      -7.23584822e-06 
      -4.30523074e-07       3.55909339e-06      -7.23831493e-06 
       1.46009295e-07       3.56156123e-06      -7.23831609e-06 
       4.29229486e-07       3.56156151e-06      -7.23584938e-06 
      -1.54391560e-07       3.96287607e-06      -8.05797162e-06 
      -4.51100626e-07       3.96287576e-06      -8.06057399e-06 
       1.53036547e-07       3.96547938e-06      -8.06057526e-06 
       4.49745613e-07       3.96547968e-06      -8.05797289e-06 
      -1.54391560e-07       3.96287607e-06      -8.05797162e-06 
      -4.51100626e-07       3.96287576e-06      -8.06057399e-06 
       1.53036547e-07       3.96547938e-06      -8.06057526e-06 
       4.49745613e-07       3.96547968e-06      -8.05797289e-06 
      -1.61311735e-07       4.38520705e-06      -8.91806685e-06 
      -4.71170296e-07       4.38520672e-06      -8.92080487e-06 
       1.59894958e-07       4.38794610e-06      -8.92080626e-06 
       4.69753519e-07       4.38794644e-06      -8.91806823e-06 
      -1.61311735e-07       4.38520705e-06      -8.91806685e-06 
      -4.71170296e-07       4.38520672e-06      -8.92080487e-06 
       1.59894958e-07       4.38794610e-06      -8.92080626e-06 
       4.69753519e-07       4.38794644e-06      -8.91806823e-06 
      -1.68063403e-07       4.82561398e-06      -9.81519148e-06 
      -4.90732080e-07       4.82561362e-06      -9.81806517e-06 
       1.66584531e-07       4.82848878e-06      -9.81806667e-06 
       4.89253208e-07       4.82848914e-06      -9.81519299e-06 
      -1.68063404e-07       4.82561398e-06      -9.81519148e-06 
      -4.90732080e-07       4.82561362e-06      -9.81806517e-06 
       1.66584531e-07       4.82848878e-06      -9.81806667e-06 
       4.89253208e-07       4.82848914e-06      -9.81519299e-06 
      -1.74644640e-07       5.28364139e-06      -1.07484280e-05 
      -5.09803859e-07       5.28364100e-06      -1.07514213e-05 
       1.73124265e-07       5.28663592e-06      -1.07514229e-05 
       5.08283484e-07       5.28663631e-06      -1.07484296e-05 
      -1.74644640e-07       5.28364139e-06      -1.07484280e-05 
      -5.09803859e-07       5.28364100e-06      -1.07514213e-05 
       1.73124265e-07       5.28663592e-06      -1.07514229e-05 
       5.08283484e-07       5.28663631e-06      -1.07484296e-05 
      -1.81075528e-07       5.75885493e-06      -1.17169134e-05 
      -5.28425916e-07       5.75885451e-06      -1.17200264e-05 
       1.79513178e-07       5.76196920e-06      -1.17200281e-05 
       5.26863566e-07       5.76196962e-06      -1.17169151e-05 
      -1.81075528e-07       5.75885493e-06      -1.17169134e-05 
      -5.28425916e-07       5.75885451e-06      -1.17200264e-05 
       1.79513178e-07       5.76196920e-06      -1.17200281e-05 
       5.26863566e-07       5.76196962e-06      -1.17169151e-05 
      -1.87356060e-07       6.25083770e-06      -1.27198115e-05 
      -5.46598247e-07       6.25083725e-06      -1.27230441e-05 
       1.85751276e-07       6.25407171e-06      -1.27230460e-05 
       5.44993462e-07       6.25407216e-06      -1.27198133e-05 
      -1.87356060e-07       6.25083770e-06      -1.27198115e-05 
      -5.46598247e-07       6.25083725e-06      -1.27230441e-05 
       1.85751276e-07       6.25407171e-06      -1.27230460e-05 
       5.44993462e-07       6.25407216e-06      -1.27198133e-05 
      -1.93486234e-07       6.75917278e-06      -1.37562859e-05 
      -5.64320846e-07       6.75917230e-06      -1.37596382e-05 
       1.91838564e-07       6.76252653e-06      -1.37596401e-05 
       5.62673175e-07       6.76252700e-06      -1.37562879e-05 
      -1.93486234e-07       6.75917278e-06      -1.37562859e-05 
      -5.64320846e-07       6.75917230e-06      -1.37596382e-05 
       1.91838564e-07       6.76252653e-06      -1.37596401e-05 
       5.62673175e-07       6.76252700e-06      -1.37562879e-05 
      -1.99466043e-07       7.28344326e-06      -1.48255003e-05 
      -5.81593707e-07       7.28344276e-06      -1.48289722e-05 
       1.97775046e-07       7.28691674e-06      -1.48289743e-05 
       5.79902711e-07       7.28691725e-06      -1.48255024e-05 
      -1.99466043e-07       7.28344326e-06      -1.48255003e-05 
      -5.81593707e-07       7.28344276e-06      -1.48289722e-05 
       1.97775046e-07       7.28691674e-06      -1.48289743e-05 
       5.79902711e-07       7.28691725e-06      -1.48255024e-05 
      -2.05295479e-07       7.82323223e-06      -1.59266183e-05 
      -5.98416825e-07       7.82323169e-06      -1.59302099e-05 
       2.03560730e-07       7.82682545e-06      -1.59302121e-05 
       5.96682075e-07       7.82682599e-06      -1.59266206e-05 
      -2.05295479e-07       7.82323223e-06      -1.59266183e-05 
      -5.98416825e-07       7.82323169e-06      -1.59302099e-05 
       2.03560730e-07       7.82682545e-06      -1.59302121e-05 
       5.96682075e-07       7.82682599e-06      -1.59266206e-05 
      -2.10974540e-07       8.37812278e-06      -1.70588037e-05 
      -6.14790194e-07       8.37812221e-06      -1.70625149e-05 
       2.09195621e-07       8.38183573e-06      -1.70625173e-05 
       6.13011276e-07       8.38183630e-06      -1.70588061e-05 
      -2.10974540e-07       8.37812278e-06      -1.70588037e-05 
      -6.14790194e-07       8.37812221e-06      -1.70625149e-05 
       2.09195621e-07       8.38183573e-06      -1.70625173e-05 
       6.13011276e-07       8.38183630e-06      -1.70588061e-05 
      -2.16503216e-07       8.94769799e-06      -1.82212201e-05 
      -6.30713807e-07       8.94769739e-06      -1.82250510e-05 
       2.14679726e-07       8.95153067e-06      -1.82250535e-05 
       6.28890316e-07       8.95153127e-06      -1.82212226e-05 
      -2.16503216e-07       8.94769799e-06      -1.82212201e-05 
      -6.30713807e-07       8.94769739e-06      -1.82250510e-05 
       2.14679726e-07       8.95153067e-06      -1.82250535e-05 
       6.28890316e-07       8.95153127e-06      -1.82212226e-05 
      -2.21881506e-07       9.53154094e-06      -1.94130312e-05 
      -6.46187660e-07       9.53154032e-06      -1.94169817e-05 
       2.20013049e-07       9.53549337e-06      -1.94169843e-05 
       6.44319202e-07       9.53549400e-06      -1.94130338e-05 
      -2.21881506e-07       9.53154094e-06      -1.94130312e-05 
      -6.46187660e-07       9.53154032e-06      -1.94169817e-05 
       2.20013049e-07       9.53549337e-06      -1.94169843e-05 
       6.44319202e-07       9.53549400e-06      -1.94130338e-05 
      -2.27109402e-07       1.01292347e-05      -2.06334006e-05 
      -6.61211748e-07       1.01292341e-05      -2.06374708e-05 
       2.25195594e-07       1.01333069e-05      -2.06374735e-05 
       6.59297940e-07       1.01333076e-05      -2.06334034e-05 
      -2.27109402e-07       1.01292347e-05      -2.06334006e-05 
      -6.61211748e-07       1.01292341e-05      -2.06374708e-05 
       2.25195594e-07       1.01333069e-05      -2.06374735e-05 
       6.59297940e-07       1.01333076e-05      -2.06334034e-05 
      -2.32188778e-07       1.07403797e-05      -2.18815176e-05 
      -6.75807954e-07       1.07403791e-05      -2.18856914e-05 
       2.30243558e-07       1.07445556e-05      -2.18856942e-05 
       6.73862734e-07       1.07445563e-05      -2.18815205e-05 
      -2.32188778e-07       1.07403797e-05      -2.18815176e-05 
      -6.75807954e-07       1.07403791e-05      -2.18856914e-05 
       2.30243558e-07       1.07445556e-05      -2.18856942e-05 
       6.73862734e-07       1.07445563e-05      -2.18815205e-05 
      -2.37136488e-07       1.13645976e-05      -2.31566273e-05 
      -6.90013350e-07       1.13645969e-05      -2.31609048e-05 
       2.35159400e-07       1.13688772e-05      -2.31609077e-05 
       6.88036262e-07       1.13688780e-05      -2.31566303e-05 
      -2.37136488e-07       1.13645976e-05      -2.31566273e-05 
      -6.90013350e-07       1.13645969e-05      -2.31609048e-05 
       2.35159400e-07       1.13688772e-05      -2.31609077e-05 
       6.88036262e-07       1.13688780e-05      -2.31566303e-05 
      -2.41952526e-07       1.20015275e-05      -2.44580016e-05 
      -7.03827926e-07       1.20015268e-05      -2.44623826e-05 
       2.39943130e-07       1.20059109e-05      -2.44623857e-05 
       7.01818531e-07       1.20059116e-05      -2.44580047e-05 
      -2.41952526e-07       1.20015275e-05      -2.44580016e-05 
      -7.03827926e-07       1.20015268e-05      -2.44623826e-05 
       2.39943130e-07       1.20059109e-05      -2.44623857e-05 
       7.01818531e-07       1.20059116e-05      -2.44580047e-05 
      -2.46636885e-07       1.26508085e-05      -2.57849121e-05 
      -7.17251679e-07       1.26508077e-05      -2.57893968e-05 
       2.44594752e-07       1.26552956e-05      -2.57894000e-05 
       7.15209546e-07       1.26552964e-05      -2.57849153e-05 
      -2.46636885e-07       1.26508085e-05      -2.57849121e-05 
      -7.17251679e-07       1.26508077e-05      -2.57893968e-05 
       2.44594752e-07       1.26552956e-05      -2.57894000e-05 
       7.15209546e-07       1.26552964e-05      -2.57849153e-05 
      -2.51189561e-07       1.33120797e-05      -2.71366307e-05 
      -7.30284603e-07       1.33120789e-05      -2.71412190e-05 
       2.49114271e-07       1.33166705e-05      -2.71412224e-05 
       7.28209313e-07       1.33166713e-05      -2.71366340e-05 
      -2.51189561e-07       1.33120797e-05      -2.71366307e-05 
      -7.30284603e-07       1.33120789e-05      -2.71412190e-05 
       2.49114271e-07       1.33166705e-05      -2.71412224e-05 
       7.28209313e-07       1.33166713e-05      -2.71366340e-05 
      -2.55610546e-07       1.39849803e-05      -2.85124290e-05 
      -7.42926691e-07       1.39849794e-05      -2.85171210e-05 
       2.53501695e-07       1.39896748e-05      -2.85171245e-05 
       7.40817840e-07       1.39896756e-05      -2.85124325e-05 
      -2.55610546e-07       1.39849803e-05      -2.85124290e-05 
      -7.42926691e-07       1.39849794e-05      -2.85171210e-05 
       2.53501695e-07       1.39896748e-05      -2.85171245e-05 
       7.40817840e-07       1.39896756e-05      -2.85124325e-05 
      -2.59899835e-07       1.46691492e-05      -2.99115789e-05 
      -7.55177936e-07       1.46691484e-05      -2.99163745e-05 
       2.57757029e-07       1.46739475e-05      -2.99163781e-05 
       7.53035131e-07       1.46739484e-05      -2.99115825e-05 
      -2.59899835e-07       1.46691492e-05      -2.99115789e-05 
      -7.55177936e-07       1.46691484e-05      -2.99163745e-05 
       2.57757029e-07       1.46739475e-05      -2.99163781e-05 
       7.53035131e-07       1.46739484e-05      -2.99115825e-05 
      -2.64057419e-07       1.53642258e-05      -3.13333521e-05 
      -7.67038332e-07       1.53642249e-05      -3.13382513e-05 
       2.61880282e-07       1.53691278e-05      -3.13382550e-05 
       7.64861194e-07       1.53691287e-05      -3.13333557e-05 
      -2.64057419e-07       1.53642258e-05      -3.13333521e-05 
      -7.67038332e-07       1.53642249e-05      -3.13382513e-05 