# vtk DataFile Version 2.0
./output/onsasExample_BladeCantileverBeamPitch_windVel3DDynamic 3D/onsasExample_BladeCantileverBeamPitch_windVel3DDynamic 3D_0246.vtk
ASCII
DATASET UNSTRUCTURED_GRID

POINTS 800 float
      -1.696077e-23      -7.180703e-02      -7.180703e-02 
      -4.294637e-24       7.180703e-02      -7.180703e-02 
       1.696077e-23       7.180703e-02       7.180703e-02 
       4.294637e-24      -7.180703e-02       7.180703e-02 
       2.000000e-01      -7.180702e-02      -7.180706e-02 
       2.000000e-01       7.180705e-02      -7.180706e-02 
       2.000000e-01       7.180705e-02       7.180701e-02 
       2.000000e-01      -7.180702e-02       7.180701e-02 
       2.000000e-01      -7.180702e-02      -7.180706e-02 
       2.000000e-01       7.180705e-02      -7.180706e-02 
       2.000000e-01       7.180705e-02       7.180701e-02 
       2.000000e-01      -7.180702e-02       7.180701e-02 
       4.000000e-01      -7.180698e-02      -7.180713e-02 
       3.999999e-01       7.180709e-02      -7.180713e-02 
       4.000000e-01       7.180709e-02       7.180694e-02 
       4.000001e-01      -7.180698e-02       7.180694e-02 
       4.000000e-01      -7.180698e-02      -7.180713e-02 
       3.999999e-01       7.180709e-02      -7.180713e-02 
       4.000000e-01       7.180709e-02       7.180694e-02 
       4.000001e-01      -7.180698e-02       7.180694e-02 
       6.000000e-01      -7.180691e-02      -7.180725e-02 
       5.999999e-01       7.180716e-02      -7.180725e-02 
       6.000000e-01       7.180716e-02       7.180682e-02 
       6.000001e-01      -7.180691e-02       7.180682e-02 
       6.000000e-01      -7.180691e-02      -7.180725e-02 
       5.999999e-01       7.180716e-02      -7.180725e-02 
       6.000000e-01       7.180716e-02       7.180682e-02 
       6.000001e-01      -7.180691e-02       7.180682e-02 
       8.000000e-01      -7.180682e-02      -7.180741e-02 
       7.999999e-01       7.180725e-02      -7.180741e-02 
       8.000000e-01       7.180725e-02       7.180665e-02 
       8.000001e-01      -7.180682e-02       7.180666e-02 
       8.000000e-01      -7.180682e-02      -7.180741e-02 
       7.999999e-01       7.180725e-02      -7.180741e-02 
       8.000000e-01       7.180725e-02       7.180665e-02 
       8.000001e-01      -7.180682e-02       7.180666e-02 
       1.000000e+00      -7.180670e-02      -7.180762e-02 
       9.999999e-01       7.180737e-02      -7.180762e-02 
       1.000000e+00       7.180737e-02       7.180645e-02 
       1.000000e+00      -7.180670e-02       7.180645e-02 
       1.000000e+00      -7.180670e-02      -7.180762e-02 
       9.999999e-01       7.180737e-02      -7.180762e-02 
       1.000000e+00       7.180737e-02       7.180645e-02 
       1.000000e+00      -7.180670e-02       7.180645e-02 
       1.200000e+00      -7.180655e-02      -7.180787e-02 
       1.200000e+00       7.180751e-02      -7.180787e-02 
       1.200000e+00       7.180751e-02       7.180619e-02 
       1.200000e+00      -7.180655e-02       7.180619e-02 
       1.200000e+00      -7.180655e-02      -7.180787e-02 
       1.200000e+00       7.180751e-02      -7.180787e-02 
       1.200000e+00       7.180751e-02       7.180619e-02 
       1.200000e+00      -7.180655e-02       7.180619e-02 
       1.400000e+00      -7.180638e-02      -7.180817e-02 
       1.400000e+00       7.180768e-02      -7.180817e-02 
       1.400000e+00       7.180768e-02       7.180590e-02 
       1.400000e+00      -7.180638e-02       7.180590e-02 
       1.400000e+00      -7.180638e-02      -7.180817e-02 
       1.400000e+00       7.180768e-02      -7.180817e-02 
       1.400000e+00       7.180768e-02       7.180590e-02 
       1.400000e+00      -7.180638e-02       7.180590e-02 
       1.600000e+00      -7.180619e-02      -7.180850e-02 
       1.600000e+00       7.180787e-02      -7.180851e-02 
       1.600000e+00       7.180788e-02       7.180556e-02 
       1.600000e+00      -7.180619e-02       7.180556e-02 
       1.600000e+00      -7.180619e-02      -7.180850e-02 
       1.600000e+00       7.180787e-02      -7.180851e-02 
       1.600000e+00       7.180788e-02       7.180556e-02 
       1.600000e+00      -7.180619e-02       7.180556e-02 
       1.800000e+00      -7.180598e-02      -7.180888e-02 
       1.800000e+00       7.180809e-02      -7.180888e-02 
       1.800000e+00       7.180809e-02       7.180518e-02 
       1.800000e+00      -7.180597e-02       7.180518e-02 
       1.800000e+00      -7.180598e-02      -7.180888e-02 
       1.800000e+00       7.180809e-02      -7.180888e-02 
       1.800000e+00       7.180809e-02       7.180518e-02 
       1.800000e+00      -7.180597e-02       7.180518e-02 
       2.000000e+00      -7.180574e-02      -7.180930e-02 
       2.000000e+00       7.180833e-02      -7.180930e-02 
       2.000000e+00       7.180833e-02       7.180477e-02 
       2.000000e+00      -7.180573e-02       7.180477e-02 
       2.000000e+00      -7.180574e-02      -7.180930e-02 
       2.000000e+00       7.180833e-02      -7.180930e-02 
       2.000000e+00       7.180833e-02       7.180477e-02 
       2.000000e+00      -7.180573e-02       7.180477e-02 
       2.200000e+00      -7.180547e-02      -7.180976e-02 
       2.200000e+00       7.180859e-02      -7.180976e-02 
       2.200000e+00       7.180859e-02       7.180431e-02 
       2.200000e+00      -7.180547e-02       7.180431e-02 
       2.200000e+00      -7.180547e-02      -7.180976e-02 
       2.200000e+00       7.180859e-02      -7.180976e-02 
       2.200000e+00       7.180859e-02       7.180431e-02 
       2.200000e+00      -7.180547e-02       7.180431e-02 
       2.400000e+00      -7.180519e-02      -7.181025e-02 
       2.400000e+00       7.180888e-02      -7.181025e-02 
       2.400000e+00       7.180888e-02       7.180381e-02 
       2.400000e+00      -7.180519e-02       7.180382e-02 
       2.400000e+00      -7.180519e-02      -7.181025e-02 
       2.400000e+00       7.180888e-02      -7.181025e-02 
       2.400000e+00       7.180888e-02       7.180381e-02 
       2.400000e+00      -7.180519e-02       7.180382e-02 
       2.600000e+00      -7.180489e-02      -7.181078e-02 
       2.600000e+00       7.180918e-02      -7.181078e-02 
       2.600000e+00       7.180918e-02       7.180328e-02 
       2.600000e+00      -7.180488e-02       7.180328e-02 
       2.600000e+00      -7.180489e-02      -7.181078e-02 
       2.600000e+00       7.180918e-02      -7.181078e-02 
       2.600000e+00       7.180918e-02       7.180328e-02 
       2.600000e+00      -7.180488e-02       7.180328e-02 
       2.800000e+00      -7.180456e-02      -7.181135e-02 
       2.800000e+00       7.180951e-02      -7.181135e-02 
       2.800000e+00       7.180951e-02       7.180271e-02 
       2.800000e+00      -7.180456e-02       7.180272e-02 
       2.800000e+00      -7.180456e-02      -7.181135e-02 
       2.800000e+00       7.180951e-02      -7.181135e-02 
       2.800000e+00       7.180951e-02       7.180271e-02 
       2.800000e+00      -7.180456e-02       7.180272e-02 
       3.000000e+00      -7.180421e-02      -7.181195e-02 
       3.000000e+00       7.180985e-02      -7.181196e-02 
       3.000000e+00       7.180986e-02       7.180211e-02 
       3.000000e+00      -7.180421e-02       7.180211e-02 
       3.000000e+00      -7.180421e-02      -7.181195e-02 
       3.000000e+00       7.180985e-02      -7.181196e-02 
       3.000000e+00       7.180986e-02       7.180211e-02 
       3.000000e+00      -7.180421e-02       7.180211e-02 
       3.200000e+00      -7.180385e-02      -7.181259e-02 
       3.200000e+00       7.181022e-02      -7.181259e-02 
       3.200000e+00       7.181022e-02       7.180147e-02 
       3.200000e+00      -7.180384e-02       7.180147e-02 
       3.200000e+00      -7.180385e-02      -7.181259e-02 
       3.200000e+00       7.181022e-02      -7.181259e-02 
       3.200000e+00       7.181022e-02       7.180147e-02 
       3.200000e+00      -7.180384e-02       7.180147e-02 
       3.400000e+00      -7.180346e-02      -7.181326e-02 
       3.400000e+00       7.181061e-02      -7.181327e-02 
       3.400000e+00       7.181061e-02       7.180080e-02 
       3.400000e+00      -7.180346e-02       7.180080e-02 
       3.400000e+00      -7.180346e-02      -7.181326e-02 
       3.400000e+00       7.181061e-02      -7.181327e-02 
       3.400000e+00       7.181061e-02       7.180080e-02 
       3.400000e+00      -7.180346e-02       7.180080e-02 
       3.600000e+00      -7.180305e-02      -7.181397e-02 
       3.600000e+00       7.181101e-02      -7.181397e-02 
       3.600000e+00       7.181102e-02       7.180010e-02 
       3.600000e+00      -7.180305e-02       7.180010e-02 
       3.600000e+00      -7.180305e-02      -7.181397e-02 
       3.600000e+00       7.181101e-02      -7.181397e-02 
       3.600000e+00       7.181102e-02       7.180010e-02 
       3.600000e+00      -7.180305e-02       7.180010e-02 
       3.800000e+00      -7.180263e-02      -7.181470e-02 
       3.800000e+00       7.181144e-02      -7.181471e-02 
       3.800000e+00       7.181144e-02       7.179936e-02 
       3.800000e+00      -7.180263e-02       7.179936e-02 
       3.800000e+00      -7.180263e-02      -7.181470e-02 
       3.800000e+00       7.181144e-02      -7.181471e-02 
       3.800000e+00       7.181144e-02       7.179936e-02 
       3.800000e+00      -7.180263e-02       7.179936e-02 
       4.000000e+00      -7.180219e-02      -7.181547e-02 
       4.000000e+00       7.181188e-02      -7.181548e-02 
       4.000000e+00       7.181188e-02       7.179859e-02 
       4.000000e+00      -7.180218e-02       7.179859e-02 
       4.000000e+00      -7.180219e-02      -7.181547e-02 
       4.000000e+00       7.181188e-02      -7.181548e-02 
       4.000000e+00       7.181188e-02       7.179859e-02 
       4.000000e+00      -7.180218e-02       7.179859e-02 
       4.200000e+00      -7.180173e-02      -7.181627e-02 
[...]
POINT_DATA       800 
VECTORS Displacements float
      -1.69607669e-23       0.00000000e+00       0.00000000e+00 
      -4.29463739e-24       0.00000000e+00       0.00000000e+00 
       1.69607669e-23       0.00000000e+00       0.00000000e+00 
       4.29463739e-24       0.00000000e+00       0.00000000e+00 
      -7.45073828e-09       1.36893882e-08      -2.40447409e-08 
      -2.71572768e-08       1.36893868e-08      -2.41975413e-08 
       7.36821779e-09       1.38421919e-08      -2.41975455e-08 
       2.70747564e-08       1.38421933e-08      -2.40447451e-08 
      -7.45073828e-09       1.36893882e-08      -2.40447409e-08 
      -2.71572768e-08       1.36893868e-08      -2.41975413e-08 
       7.36821779e-09       1.38421919e-08      -2.41975455e-08 
       2.70747564e-08       1.38421933e-08      -2.40447451e-08 
      -1.47431820e-08       5.45590147e-08      -9.56863690e-08 
      -5.37778293e-08       5.45590094e-08      -9.59919652e-08 
       1.45779978e-08       5.48646242e-08      -9.59919815e-08 
       5.36126452e-08       5.48646295e-08      -9.56863853e-08 
      -1.47431820e-08       5.45590147e-08      -9.56863690e-08 
      -5.37778293e-08       5.45590094e-08      -9.59919652e-08 
       1.45779978e-08       5.48646242e-08      -9.59919815e-08 
       5.36126452e-08       5.48646295e-08      -9.56863853e-08 
      -2.18773294e-08       1.22081870e-07      -2.13956787e-07 
      -7.98616560e-08       1.22081859e-07      -2.14415174e-07 
       2.16293414e-08       1.22540287e-07      -2.14415210e-07 
       7.96136680e-08       1.22540299e-07      -2.13956823e-07 
      -2.18773294e-08       1.22081870e-07      -2.13956787e-07 
      -7.98616560e-08       1.22081859e-07      -2.14415174e-07 
       2.16293414e-08       1.22540287e-07      -2.14415210e-07 
       7.96136680e-08       1.22540299e-07      -2.13956823e-07 
      -2.88531796e-08       2.15730946e-07      -3.77887896e-07 
      -1.05408755e-07       2.15730925e-07      -3.78499072e-07 
       2.85222502e-08       2.16342172e-07      -3.78499134e-07 
       1.05077826e-07       2.16342192e-07      -3.77887959e-07 
      -2.88531796e-08       2.15730946e-07      -3.77887896e-07 
      -1.05408755e-07       2.15730925e-07      -3.78499072e-07 
       2.85222502e-08       2.16342172e-07      -3.78499134e-07 
       1.05077826e-07       2.16342192e-07      -3.77887959e-07 
      -3.56707306e-08       3.34979232e-07      -5.86511601e-07 
      -1.30419126e-07       3.34979200e-07      -5.87275560e-07 
       3.52567258e-08       3.35743269e-07      -5.87275655e-07 
       1.30005121e-07       3.35743300e-07      -5.86511696e-07 
      -3.56707306e-08       3.34979232e-07      -5.86511601e-07 
      -1.30419126e-07       3.34979200e-07      -5.87275560e-07 
       3.52567258e-08       3.35743269e-07      -5.87275655e-07 
       1.30005121e-07       3.35743300e-07      -5.86511696e-07 
      -4.23299813e-08       4.79299719e-07      -8.38859802e-07 
      -1.54892766e-07       4.79299675e-07      -8.39776542e-07 
       4.18327686e-08       4.80216568e-07      -8.39776676e-07 
       1.54395554e-07       4.80216612e-07      -8.38859937e-07 
      -4.23299813e-08       4.79299719e-07      -8.38859802e-07 
      -1.54892766e-07       4.79299675e-07      -8.39776542e-07 
       4.18327686e-08       4.80216568e-07      -8.39776676e-07 
       1.54395554e-07       4.80216612e-07      -8.38859937e-07 
      -4.88309304e-08       6.48165398e-07      -1.13396440e-06 
      -1.78829675e-07       6.48165339e-07      -1.13503392e-06 
       4.82503817e-08       6.49235061e-07      -1.13503410e-06 
       1.78249126e-07       6.49235119e-07      -1.13396458e-06 
      -4.88309304e-08       6.48165398e-07      -1.13396440e-06 
      -1.78829675e-07       6.48165339e-07      -1.13503392e-06 
       4.82503817e-08       6.49235061e-07      -1.13503410e-06 
       1.78249126e-07       6.49235119e-07      -1.13396458e-06 
      -5.51735762e-08       8.41049259e-07      -1.47085731e-06 
      -2.02229851e-07       8.41049184e-07      -1.47207960e-06 
       5.45095651e-08       8.42271737e-07      -1.47207983e-06 
       2.01565840e-07       8.42271812e-07      -1.47085754e-06 
      -5.51735762e-08       8.41049259e-07      -1.47085731e-06 
      -2.02229851e-07       8.41049184e-07      -1.47207960e-06 
       5.45095651e-08       8.42271737e-07      -1.47207983e-06 
       2.01565840e-07       8.42271812e-07      -1.47085754e-06 
      -6.13579172e-08       1.05742429e-06      -1.84857041e-06 
      -2.25093293e-07       1.05742420e-06      -1.84994548e-06 
       6.06103205e-08       1.05879959e-06      -1.84994576e-06 
       2.24345696e-07       1.05879968e-06      -1.84857070e-06 
      -6.13579172e-08       1.05742429e-06      -1.84857041e-06 
      -2.25093293e-07       1.05742420e-06      -1.84994548e-06 
       6.06103205e-08       1.05879959e-06      -1.84994576e-06 
       2.24345696e-07       1.05879968e-06      -1.84857070e-06 
      -6.73839520e-08       1.29676349e-06      -2.26613563e-06 
      -2.47419998e-07       1.29676338e-06      -2.26766346e-06 
       6.65526505e-08       1.29829160e-06      -2.26766380e-06 
       2.46588697e-07       1.29829172e-06      -2.26613597e-06 
      -6.73839520e-08       1.29676349e-06      -2.26613563e-06 
      -2.47419998e-07       1.29676338e-06      -2.26766346e-06 
       6.65526501e-08       1.29829160e-06      -2.26766380e-06 
       2.46588697e-07       1.29829172e-06      -2.26613597e-06 
      -7.32476164e-08       1.55855738e-06      -2.72261213e-06 
      -2.69226249e-07       1.55855724e-06      -2.72427673e-06 
       7.23610167e-08       1.56022230e-06      -2.72427713e-06 
       2.68339650e-07       1.56022243e-06      -2.72261254e-06 
      -7.32476164e-08       1.55855738e-06      -2.72261213e-06 
      -2.69226249e-07       1.55855724e-06      -2.72427673e-06 
       7.23610167e-08       1.56022230e-06      -2.72427713e-06 
       2.68339650e-07       1.56022243e-06      -2.72261254e-06 
      -7.89722656e-08       1.84231757e-06      -3.21711585e-06 
      -2.90555020e-07       1.84231741e-06      -3.21891720e-06 
       7.80300566e-08       1.84411930e-06      -3.21891768e-06 
       2.89612811e-07       1.84411946e-06      -3.21711633e-06 
      -7.89722656e-08       1.84231757e-06      -3.21711585e-06 
      -2.90555020e-07       1.84231741e-06      -3.21891720e-06 
       7.80300566e-08       1.84411930e-06      -3.21891768e-06 
       2.89612811e-07       1.84411946e-06      -3.21711633e-06 
      -8.45578980e-08       2.14757271e-06      -3.74878781e-06 
      -3.11406309e-07       2.14757253e-06      -3.75072592e-06 
       8.35597724e-08       2.14951126e-06      -3.75072646e-06 
       3.10408184e-07       2.14951144e-06      -3.74878835e-06 
      -8.45578980e-08       2.14757271e-06      -3.74878781e-06 
      -3.11406309e-07       2.14757253e-06      -3.75072592e-06 
       8.35597724e-08       2.14951126e-06      -3.75072646e-06 
       3.10408184e-07       2.14951144e-06      -3.74878835e-06 
      -9.00045078e-08       2.47385145e-06      -4.31676902e-06 
      -3.31780111e-07       2.47385125e-06      -4.31884389e-06 
       8.89501681e-08       2.47592682e-06      -4.31884450e-06 
       3.30725772e-07       2.47592702e-06      -4.31676964e-06 
      -9.00045078e-08       2.47385145e-06      -4.31676902e-06 
      -3.31780111e-07       2.47385125e-06      -4.31884389e-06 
       8.89501681e-08       2.47592682e-06      -4.31884450e-06 
       3.30725772e-07       2.47592702e-06      -4.31676964e-06 
      -9.53120938e-08       2.82068244e-06      -4.92020052e-06 
      -3.51676424e-07       2.82068222e-06      -4.92241213e-06 
       9.42012468e-08       2.82289463e-06      -4.92241283e-06 
       3.50565577e-07       2.82289486e-06      -4.92020121e-06 
      -9.53120938e-08       2.82068244e-06      -4.92020052e-06 
      -3.51676424e-07       2.82068222e-06      -4.92241213e-06 
       9.42012468e-08       2.82289463e-06      -4.92241283e-06 
       3.50565577e-07       2.82289486e-06      -4.92020121e-06 
      -1.00480651e-07       3.18759433e-06      -5.55822332e-06 
      -3.71095244e-07       3.18759407e-06      -5.56057168e-06 
       9.93130120e-08       3.18994333e-06      -5.56057246e-06 
       3.69927606e-07       3.18994358e-06      -5.55822409e-06 
      -1.00480651e-07       3.18759433e-06      -5.55822332e-06 
      -3.71095244e-07       3.18759407e-06      -5.56057168e-06 
       9.93130120e-08       3.18994333e-06      -5.56057246e-06 
       3.69927606e-07       3.18994358e-06      -5.55822409e-06 
      -1.05510176e-07       3.57411575e-06      -6.22997844e-06 
      -3.90036567e-07       3.57411547e-06      -6.23246356e-06 
       1.04285469e-07       3.57660157e-06      -6.23246441e-06 
       3.88811860e-07       3.57660185e-06      -6.22997929e-06 
      -1.05510176e-07       3.57411575e-06      -6.22997844e-06 
      -3.90036567e-07       3.57411547e-06      -6.23246356e-06 
       1.04285469e-07       3.57660157e-06      -6.23246441e-06 
       3.88811860e-07       3.57660185e-06      -6.22997929e-06 
      -1.10400666e-07       3.97977537e-06      -6.93460691e-06 
      -4.08500390e-07       3.97977506e-06      -6.93722878e-06 
       1.09118618e-07       3.98239800e-06      -6.93722971e-06 
       4.07218342e-07       3.98239831e-06      -6.93460784e-06 
      -1.10400666e-07       3.97977537e-06      -6.93460691e-06 
      -4.08500390e-07       3.97977506e-06      -6.93722878e-06 
       1.09118618e-07       3.98239800e-06      -6.93722971e-06 
       4.07218342e-07       3.98239831e-06      -6.93460784e-06 
      -1.15152116e-07       4.40410181e-06      -7.67124975e-06 
      -4.26486709e-07       4.40410147e-06      -7.67400837e-06 
       1.13812465e-07       4.40686126e-06      -7.67400939e-06 
       4.25147058e-07       4.40686160e-06      -7.67125077e-06 
      -1.15152116e-07       4.40410181e-06      -7.67124975e-06 
      -4.26486709e-07       4.40410147e-06      -7.67400837e-06 
       1.13812465e-07       4.40686126e-06      -7.67400939e-06 
       4.25147058e-07       4.40686160e-06      -7.67125077e-06 
      -1.19764525e-07       4.84662374e-06      -8.43904799e-06 
      -4.43995521e-07       4.84662337e-06      -8.44194336e-06 
       1.18367012e-07       4.84952001e-06      -8.44194446e-06 
       4.42598008e-07       4.84952038e-06      -8.43904909e-06 
      -1.19764525e-07       4.84662374e-06      -8.43904799e-06 
      -4.43995521e-07       4.84662337e-06      -8.44194336e-06 
       1.18367012e-07       4.84952001e-06      -8.44194446e-06 
       4.42598008e-07       4.84952038e-06      -8.43904909e-06 
      -1.24237264e-07       5.30688707e-06      -9.23716875e-06 
      -4.61046112e-07       5.30688667e-06      -9.24018484e-06 
       1.22801812e-07       5.30990414e-06      -9.24018603e-06 
       4.59610661e-07       5.30990453e-06      -9.23716993e-06 
      -1.24237264e-07       5.30688707e-06      -9.23716875e-06 
      -4.61046112e-07       5.30688667e-06      -9.24018484e-06 
       1.22801812e-07       5.30990414e-06      -9.24018603e-06 
       4.59610661e-07       5.30990453e-06      -9.23716993e-06 
      -1.28589733e-07       5.78445851e-06      -1.00648347e-05 
      -4.77677612e-07       5.78445808e-06      -1.00679715e-05 
       1.27115977e-07       5.78759638e-06      -1.00679728e-05 
       4.76203857e-07       5.78759680e-06      -1.00648360e-05 
      -1.28589733e-07       5.78445851e-06      -1.00648347e-05 
      -4.77677612e-07       5.78445808e-06      -1.00679715e-05 
       1.27115977e-07       5.78759638e-06      -1.00679728e-05 
       4.76203857e-07       5.78759680e-06      -1.00648360e-05 
      -1.32821924e-07       6.27892191e-06      -1.09212942e-05 
      -4.93890015e-07       6.27892146e-06      -1.09245518e-05 
       1.31309513e-07       6.28218058e-06      -1.09245531e-05 
       4.92377604e-07       6.28218104e-06      -1.09212956e-05 
      -1.32821924e-07       6.27892191e-06      -1.09212942e-05 
      -4.93890015e-07       6.27892146e-06      -1.09245518e-05 
       1.31309513e-07       6.28218058e-06      -1.09245531e-05 
       4.92377604e-07       6.28218104e-06      -1.09212956e-05 
      -1.36933838e-07       6.78986114e-06      -1.18057957e-05 
      -5.09683319e-07       6.78986066e-06      -1.18091739e-05 
       1.35382421e-07       6.79324061e-06      -1.18091754e-05 
       5.08131902e-07       6.79324109e-06      -1.18057971e-05 
      -1.36933838e-07       6.78986114e-06      -1.18057957e-05 
      -5.09683319e-07       6.78986066e-06      -1.18091739e-05 
       1.35382421e-07       6.79324061e-06      -1.18091754e-05 
       5.08131902e-07       6.79324109e-06      -1.18057971e-05 
      -1.40925466e-07       7.31686005e-06      -1.27175874e-05 
      -5.25057517e-07       7.31685954e-06      -1.27210864e-05 
       1.39334706e-07       7.32036032e-06      -1.27210879e-05 
       5.23466757e-07       7.32036083e-06      -1.27175889e-05 
      -1.40925466e-07       7.31686005e-06      -1.27175874e-05 
      -5.25057517e-07       7.31685954e-06      -1.27210864e-05 
       1.39334706e-07       7.32036032e-06      -1.27210879e-05 
       5.23466757e-07       7.32036083e-06      -1.27175889e-05 
      -1.44796806e-07       7.85950250e-06      -1.36559178e-05 
      -5.40012606e-07       7.85950195e-06      -1.36595375e-05 
       1.43166375e-07       7.86312356e-06      -1.36595391e-05 
       5.38382175e-07       7.86312411e-06      -1.36559194e-05 
      -1.44796806e-07       7.85950250e-06      -1.36559178e-05 
      -5.40012606e-07       7.85950195e-06      -1.36595375e-05 
       1.43166375e-07       7.86312356e-06      -1.36595391e-05 
       5.38382175e-07       7.86312411e-06      -1.36559194e-05 
      -1.48547851e-07       8.41737233e-06      -1.46200352e-05 
      -5.54548580e-07       8.41737176e-06      -1.46237756e-05 
       1.46877431e-07       8.42111420e-06      -1.46237774e-05 
       5.52878161e-07       8.42111477e-06      -1.46200369e-05 
      -1.48547851e-07       8.41737233e-06      -1.46200352e-05 
      -5.54548580e-07       8.41737176e-06      -1.46237756e-05 
       1.46877431e-07       8.42111420e-06      -1.46237774e-05 
       5.52878161e-07       8.42111477e-06      -1.46200369e-05 
      -1.52178599e-07       8.99005341e-06      -1.56091880e-05 
      -5.68665436e-07       8.99005281e-06      -1.56130492e-05 
       1.50467881e-07       8.99391608e-06      -1.56130510e-05 
       5.66954718e-07       8.99391668e-06      -1.56091898e-05 
      -1.52178599e-07       8.99005341e-06      -1.56091880e-05 
      -5.68665436e-07       8.99005281e-06      -1.56130492e-05 
       1.50467881e-07       8.99391608e-06      -1.56130510e-05 
       5.66954718e-07       8.99391668e-06      -1.56091898e-05 
      -1.55689043e-07       9.57712960e-06      -1.66226245e-05 
      -5.82363168e-07       9.57712897e-06      -1.66266064e-05 
       1.53937726e-07       9.58111307e-06      -1.66266083e-05 
       5.80611851e-07       9.58111370e-06      -1.66226264e-05 
      -1.55689043e-07       9.57712960e-06      -1.66226245e-05 
      -5.82363168e-07       9.57712897e-06      -1.66266064e-05 
       1.53937726e-07       9.58111307e-06      -1.66266083e-05 
       5.80611851e-07       9.58111370e-06      -1.66226264e-05 
      -1.59079181e-07       1.01781847e-05      -1.76595932e-05 
      -5.95641772e-07       1.01781841e-05      -1.76636958e-05 
       1.57286972e-07       1.01822890e-05      -1.76636978e-05 
       5.93849564e-07       1.01822897e-05      -1.76595952e-05 
      -1.59079181e-07       1.01781847e-05      -1.76595932e-05 
      -5.95641773e-07       1.01781841e-05      -1.76636958e-05 
       1.57286972e-07       1.01822890e-05      -1.76636978e-05 
       5.93849564e-07       1.01822897e-05      -1.76595952e-05 
      -1.62351489e-07       1.07928199e-05      -1.87193681e-05 
      -6.08523495e-07       1.07928192e-05      -1.87235755e-05 
       1.60531738e-07       1.07970289e-05      -1.87235775e-05 
       6.06703744e-07       1.07970296e-05      -1.87193702e-05 
      -1.62351489e-07       1.07928199e-05      -1.87193681e-05 
      -6.08523495e-07       1.07928192e-05      -1.87235755e-05 
       1.60531738e-07       1.07970289e-05      -1.87235775e-05 
       6.06703744e-07       1.07970296e-05      -1.87193702e-05 
      -1.65522239e-07       1.14206568e-05      -1.98012790e-05 
      -6.21044460e-07       1.14206561e-05      -1.98055910e-05 
       1.63674605e-07       1.14249706e-05      -1.98055932e-05 
       6.19196824e-07       1.14249713e-05      -1.98012811e-05 
      -1.65522239e-07       1.14206568e-05      -1.98012790e-05 
      -6.21044460e-07       1.14206561e-05      -1.98055910e-05 
       1.63674605e-07       1.14249706e-05      -1.98055932e-05 
       6.19196824e-07       1.14249713e-05      -1.98012811e-05 
      -1.68591428e-07       1.20613346e-05      -2.09046815e-05 
      -6.33204664e-07       1.20613338e-05      -2.09090982e-05 
       1.66715576e-07       1.20657531e-05      -2.09091004e-05 
       6.31328811e-07       1.20657539e-05      -2.09046837e-05 
      -1.68591428e-07       1.20613346e-05      -2.09046815e-05 
      -6.33204664e-07       1.20613338e-05      -2.09090982e-05 
       1.66715576e-07       1.20657531e-05      -2.09091004e-05 
       6.31328811e-07       1.20657539e-05      -2.09046837e-05 
      -1.71559051e-07       1.27144922e-05      -2.20289313e-05 
      -6.45004102e-07       1.27144914e-05      -2.20334527e-05 
       1.69654657e-07       1.27190155e-05      -2.20334551e-05 
       6.43099708e-07       1.27190163e-05      -2.20289337e-05 
      -1.71559051e-07       1.27144922e-05      -2.20289313e-05 
      -6.45004102e-07       1.27144914e-05      -2.20334527e-05 
       1.69654657e-07       1.27190155e-05      -2.20334551e-05 
       6.43099708e-07       1.27190163e-05      -2.20289337e-05 
      -1.74425102e-07       1.33797687e-05      -2.31733842e-05 
      -6.56442769e-07       1.33797679e-05      -2.31780103e-05 
       1.72491852e-07       1.33843968e-05      -2.31780127e-05 
       6.54509519e-07       1.33843976e-05      -2.31733866e-05 
      -1.74425102e-07       1.33797687e-05      -2.31733842e-05 
      -6.56442769e-07       1.33797679e-05      -2.31780103e-05 
       1.72491852e-07       1.33843968e-05      -2.31780127e-05 
       6.54509519e-07       1.33843976e-05      -2.31733866e-05 
      -1.77189576e-07       1.40568032e-05      -2.43373958e-05 
      -6.67520660e-07       1.40568023e-05      -2.43421266e-05 
       1.75227166e-07       1.40615360e-05      -2.43421290e-05 
       6.65558249e-07       1.40615368e-05      -2.43373983e-05 
      -1.77189576e-07       1.40568032e-05      -2.43373958e-05 
      -6.67520660e-07       1.40568023e-05      -2.43421266e-05 
       1.75227166e-07       1.40615360e-05      -2.43421290e-05 
       6.65558249e-07       1.40615368e-05      -2.43373983e-05 
      -1.79852469e-07       1.47452345e-05      -2.55203218e-05 
      -6.78237770e-07       1.47452337e-05      -2.55251572e-05 
       1.77860605e-07       1.47500721e-05      -2.55251598e-05 
       6.76245905e-07       1.47500730e-05      -2.55203243e-05 
      -1.79852469e-07       1.47452345e-05      -2.55203218e-05 
      -6.78237770e-07       1.47452337e-05      -2.55251572e-05 
       1.77860605e-07       1.47500721e-05      -2.55251598e-05 
       6.76245905e-07       1.47500730e-05      -2.55203243e-05 
      -1.82413775e-07       1.54447019e-05      -2.67215179e-05 
      -6.88594093e-07       1.54447010e-05      -2.67264580e-05 
       1.80392174e-07       1.54496442e-05      -2.67264606e-05 
       6.86572492e-07       1.54496451e-05      -2.67215205e-05 
      -1.82413775e-07       1.54447019e-05      -2.67215179e-05 
      -6.88594093e-07       1.54447010e-05      -2.67264580e-05 