# vtk DataFile Version 2.0
./output/onsasExample_BladeCantileverBeamPitch_windVel3DDynamic 3D/onsasExample_BladeCantileverBeamPitch_windVel3DDynamic 3D_0253.vtk
ASCII
DATASET UNSTRUCTURED_GRID

POINTS 800 float
       2.066007e-24      -7.180703e-02      -7.180703e-02 
      -2.744371e-24       7.180703e-02      -7.180703e-02 
      -2.066007e-24       7.180703e-02       7.180703e-02 
       2.744371e-24      -7.180703e-02       7.180703e-02 
       2.000000e-01      -7.180702e-02      -7.180706e-02 
       2.000000e-01       7.180705e-02      -7.180706e-02 
       2.000000e-01       7.180705e-02       7.180700e-02 
       2.000000e-01      -7.180702e-02       7.180701e-02 
       2.000000e-01      -7.180702e-02      -7.180706e-02 
       2.000000e-01       7.180705e-02      -7.180706e-02 
       2.000000e-01       7.180705e-02       7.180700e-02 
       2.000000e-01      -7.180702e-02       7.180701e-02 
       4.000000e-01      -7.180698e-02      -7.180714e-02 
       3.999999e-01       7.180709e-02      -7.180714e-02 
       4.000000e-01       7.180709e-02       7.180692e-02 
       4.000001e-01      -7.180698e-02       7.180692e-02 
       4.000000e-01      -7.180698e-02      -7.180714e-02 
       3.999999e-01       7.180709e-02      -7.180714e-02 
       4.000000e-01       7.180709e-02       7.180692e-02 
       4.000001e-01      -7.180698e-02       7.180692e-02 
       6.000000e-01      -7.180691e-02      -7.180728e-02 
       5.999999e-01       7.180715e-02      -7.180728e-02 
       6.000000e-01       7.180716e-02       7.180678e-02 
       6.000001e-01      -7.180691e-02       7.180678e-02 
       6.000000e-01      -7.180691e-02      -7.180728e-02 
       5.999999e-01       7.180715e-02      -7.180728e-02 
       6.000000e-01       7.180716e-02       7.180678e-02 
       6.000001e-01      -7.180691e-02       7.180678e-02 
       8.000000e-01      -7.180682e-02      -7.180747e-02 
       7.999999e-01       7.180725e-02      -7.180747e-02 
       8.000000e-01       7.180725e-02       7.180659e-02 
       8.000001e-01      -7.180682e-02       7.180659e-02 
       8.000000e-01      -7.180682e-02      -7.180747e-02 
       7.999999e-01       7.180725e-02      -7.180747e-02 
       8.000000e-01       7.180725e-02       7.180659e-02 
       8.000001e-01      -7.180682e-02       7.180659e-02 
       1.000000e+00      -7.180670e-02      -7.180772e-02 
       9.999999e-01       7.180737e-02      -7.180772e-02 
       1.000000e+00       7.180737e-02       7.180635e-02 
       1.000000e+00      -7.180670e-02       7.180635e-02 
       1.000000e+00      -7.180670e-02      -7.180772e-02 
       9.999999e-01       7.180737e-02      -7.180772e-02 
       1.000000e+00       7.180737e-02       7.180635e-02 
       1.000000e+00      -7.180670e-02       7.180635e-02 
       1.200000e+00      -7.180655e-02      -7.180801e-02 
       1.200000e+00       7.180751e-02      -7.180801e-02 
       1.200000e+00       7.180751e-02       7.180605e-02 
       1.200000e+00      -7.180655e-02       7.180605e-02 
       1.200000e+00      -7.180655e-02      -7.180801e-02 
       1.200000e+00       7.180751e-02      -7.180801e-02 
       1.200000e+00       7.180751e-02       7.180605e-02 
       1.200000e+00      -7.180655e-02       7.180605e-02 
       1.400000e+00      -7.180639e-02      -7.180836e-02 
       1.400000e+00       7.180768e-02      -7.180836e-02 
       1.400000e+00       7.180768e-02       7.180571e-02 
       1.400000e+00      -7.180639e-02       7.180571e-02 
       1.400000e+00      -7.180639e-02      -7.180836e-02 
       1.400000e+00       7.180768e-02      -7.180836e-02 
       1.400000e+00       7.180768e-02       7.180571e-02 
       1.400000e+00      -7.180639e-02       7.180571e-02 
       1.600000e+00      -7.180619e-02      -7.180875e-02 
       1.600000e+00       7.180787e-02      -7.180875e-02 
       1.600000e+00       7.180787e-02       7.180531e-02 
       1.600000e+00      -7.180619e-02       7.180531e-02 
       1.600000e+00      -7.180619e-02      -7.180875e-02 
       1.600000e+00       7.180787e-02      -7.180875e-02 
       1.600000e+00       7.180787e-02       7.180531e-02 
       1.600000e+00      -7.180619e-02       7.180531e-02 
       1.800000e+00      -7.180598e-02      -7.180919e-02 
       1.800000e+00       7.180809e-02      -7.180920e-02 
       1.800000e+00       7.180809e-02       7.180487e-02 
       1.800000e+00      -7.180598e-02       7.180487e-02 
       1.800000e+00      -7.180598e-02      -7.180919e-02 
       1.800000e+00       7.180809e-02      -7.180920e-02 
       1.800000e+00       7.180809e-02       7.180487e-02 
       1.800000e+00      -7.180598e-02       7.180487e-02 
       2.000000e+00      -7.180574e-02      -7.180968e-02 
       2.000000e+00       7.180833e-02      -7.180968e-02 
       2.000000e+00       7.180833e-02       7.180438e-02 
       2.000000e+00      -7.180574e-02       7.180438e-02 
       2.000000e+00      -7.180574e-02      -7.180968e-02 
       2.000000e+00       7.180833e-02      -7.180968e-02 
       2.000000e+00       7.180833e-02       7.180438e-02 
       2.000000e+00      -7.180574e-02       7.180438e-02 
       2.200000e+00      -7.180548e-02      -7.181022e-02 
       2.200000e+00       7.180859e-02      -7.181022e-02 
       2.200000e+00       7.180859e-02       7.180385e-02 
       2.200000e+00      -7.180548e-02       7.180385e-02 
       2.200000e+00      -7.180548e-02      -7.181022e-02 
       2.200000e+00       7.180859e-02      -7.181022e-02 
       2.200000e+00       7.180859e-02       7.180385e-02 
       2.200000e+00      -7.180548e-02       7.180385e-02 
       2.400000e+00      -7.180520e-02      -7.181080e-02 
       2.400000e+00       7.180887e-02      -7.181080e-02 
       2.400000e+00       7.180887e-02       7.180326e-02 
       2.400000e+00      -7.180519e-02       7.180327e-02 
       2.400000e+00      -7.180520e-02      -7.181080e-02 
       2.400000e+00       7.180887e-02      -7.181080e-02 
       2.400000e+00       7.180887e-02       7.180326e-02 
       2.400000e+00      -7.180519e-02       7.180327e-02 
       2.600000e+00      -7.180489e-02      -7.181142e-02 
       2.600000e+00       7.180917e-02      -7.181143e-02 
       2.600000e+00       7.180918e-02       7.180264e-02 
       2.600000e+00      -7.180489e-02       7.180264e-02 
       2.600000e+00      -7.180489e-02      -7.181142e-02 
       2.600000e+00       7.180917e-02      -7.181143e-02 
       2.600000e+00       7.180918e-02       7.180264e-02 
       2.600000e+00      -7.180489e-02       7.180264e-02 
       2.800000e+00      -7.180457e-02      -7.181209e-02 
       2.800000e+00       7.180950e-02      -7.181209e-02 
       2.800000e+00       7.180950e-02       7.180197e-02 
       2.800000e+00      -7.180456e-02       7.180197e-02 
       2.800000e+00      -7.180457e-02      -7.181209e-02 
       2.800000e+00       7.180950e-02      -7.181209e-02 
       2.800000e+00       7.180950e-02       7.180197e-02 
       2.800000e+00      -7.180456e-02       7.180197e-02 
       3.000000e+00      -7.180422e-02      -7.181280e-02 
       3.000000e+00       7.180985e-02      -7.181281e-02 
       3.000000e+00       7.180985e-02       7.180126e-02 
       3.000000e+00      -7.180422e-02       7.180126e-02 
       3.000000e+00      -7.180422e-02      -7.181280e-02 
       3.000000e+00       7.180985e-02      -7.181281e-02 
       3.000000e+00       7.180985e-02       7.180126e-02 
       3.000000e+00      -7.180422e-02       7.180126e-02 
       3.200000e+00      -7.180385e-02      -7.181356e-02 
       3.200000e+00       7.181021e-02      -7.181356e-02 
       3.200000e+00       7.181021e-02       7.180051e-02 
       3.200000e+00      -7.180385e-02       7.180051e-02 
       3.200000e+00      -7.180385e-02      -7.181356e-02 
       3.200000e+00       7.181021e-02      -7.181356e-02 
       3.200000e+00       7.181021e-02       7.180051e-02 
       3.200000e+00      -7.180385e-02       7.180051e-02 
       3.400000e+00      -7.180347e-02      -7.181435e-02 
       3.400000e+00       7.181060e-02      -7.181435e-02 
       3.400000e+00       7.181060e-02       7.179972e-02 
       3.400000e+00      -7.180347e-02       7.179972e-02 
       3.400000e+00      -7.180347e-02      -7.181435e-02 
       3.400000e+00       7.181060e-02      -7.181435e-02 
       3.400000e+00       7.181060e-02       7.179972e-02 
       3.400000e+00      -7.180347e-02       7.179972e-02 
       3.600000e+00      -7.180306e-02      -7.181518e-02 
       3.600000e+00       7.181100e-02      -7.181518e-02 
       3.600000e+00       7.181100e-02       7.179888e-02 
       3.600000e+00      -7.180306e-02       7.179889e-02 
       3.600000e+00      -7.180306e-02      -7.181518e-02 
       3.600000e+00       7.181100e-02      -7.181518e-02 
       3.600000e+00       7.181100e-02       7.179888e-02 
       3.600000e+00      -7.180306e-02       7.179889e-02 
       3.800000e+00      -7.180264e-02      -7.181605e-02 
       3.800000e+00       7.181142e-02      -7.181605e-02 
       3.800000e+00       7.181143e-02       7.179801e-02 
       3.800000e+00      -7.180264e-02       7.179802e-02 
       3.800000e+00      -7.180264e-02      -7.181605e-02 
       3.800000e+00       7.181142e-02      -7.181605e-02 
       3.800000e+00       7.181143e-02       7.179801e-02 
       3.800000e+00      -7.180264e-02       7.179802e-02 
       4.000000e+00      -7.180220e-02      -7.181696e-02 
       4.000000e+00       7.181187e-02      -7.181696e-02 
       4.000000e+00       7.181187e-02       7.179711e-02 
       4.000000e+00      -7.180220e-02       7.179711e-02 
       4.000000e+00      -7.180220e-02      -7.181696e-02 
       4.000000e+00       7.181187e-02      -7.181696e-02 
       4.000000e+00       7.181187e-02       7.179711e-02 
       4.000000e+00      -7.180220e-02       7.179711e-02 
       4.200000e+00      -7.180174e-02      -7.181790e-02 
[...]
POINT_DATA       800 
VECTORS Displacements float
       2.06600692e-24      -1.38777878e-17       0.00000000e+00 
      -2.74437073e-24       2.77555756e-17       0.00000000e+00 
      -2.06600692e-24       1.38777878e-17       0.00000000e+00 
       2.74437073e-24      -2.77555756e-17       0.00000000e+00 
      -1.03072788e-08       1.36569894e-08      -2.79988972e-08 
      -2.99664035e-08       1.36569880e-08      -2.81505651e-08 
       1.02280258e-08       1.38086615e-08      -2.81505707e-08 
       2.98871505e-08       1.38086628e-08      -2.79989028e-08 
      -1.03072788e-08       1.36569894e-08      -2.79988972e-08 
      -2.99664035e-08       1.36569880e-08      -2.81505651e-08 
       1.02280258e-08       1.38086615e-08      -2.81505707e-08 
       2.98871505e-08       1.38086628e-08      -2.79989028e-08 
      -2.04295649e-08       5.44278868e-08      -1.11451851e-07 
      -5.93689531e-08       5.44278815e-08      -1.11755182e-07 
       2.02708766e-08       5.47312338e-08      -1.11755204e-07 
       5.92102650e-08       5.47312390e-08      -1.11451873e-07 
      -2.04295649e-08       5.44278868e-08      -1.11451851e-07 
      -5.93689531e-08       5.44278815e-08      -1.11755182e-07 
       2.02708766e-08       5.47312338e-08      -1.11755204e-07 
       5.92102650e-08       5.47312390e-08      -1.11451873e-07 
      -3.03668564e-08       1.21785082e-07      -2.49315749e-07 
      -8.82076470e-08       1.21785070e-07      -2.49770737e-07 
       3.01285542e-08       1.22240106e-07      -2.49770786e-07 
       8.79693448e-08       1.22240118e-07      -2.49315798e-07 
      -3.03668564e-08       1.21785082e-07      -2.49315749e-07 
      -8.82076470e-08       1.21785070e-07      -2.49770737e-07 
       3.01285542e-08       1.22240106e-07      -2.49770786e-07 
       8.79693448e-08       1.22240118e-07      -2.49315798e-07 
      -4.01191516e-08       2.15200965e-07      -4.40547477e-07 
      -1.16482483e-07       2.15200945e-07      -4.41154118e-07 
       3.98010607e-08       2.15807669e-07      -4.41154203e-07 
       1.16164392e-07       2.15807689e-07      -4.40547562e-07 
      -4.01191516e-08       2.15200965e-07      -4.40547477e-07 
      -1.16482483e-07       2.15200945e-07      -4.41154118e-07 
       3.98010607e-08       2.15807669e-07      -4.41154203e-07 
       1.16164392e-07       2.15807689e-07      -4.40547562e-07 
      -4.96864491e-08       3.34147925e-07      -6.84103921e-07 
      -1.44193461e-07       3.34147894e-07      -6.84862211e-07 
       4.92883971e-08       3.34906312e-07      -6.84862342e-07 
       1.43795409e-07       3.34906343e-07      -6.84104051e-07 
      -4.96864491e-08       3.34147925e-07      -6.84103921e-07 
      -1.44193461e-07       3.34147894e-07      -6.84862211e-07 
       4.92883971e-08       3.34906312e-07      -6.84862342e-07 
       1.43795409e-07       3.34906343e-07      -6.84104051e-07 
      -5.90687470e-08       4.78098353e-07      -9.78941969e-07 
      -1.71340577e-07       4.78098309e-07      -9.79851904e-07 
       5.85905657e-08       4.79008424e-07      -9.79852088e-07 
       1.70862396e-07       4.79008467e-07      -9.78942153e-07 
      -5.90687470e-08       4.78098353e-07      -9.78941969e-07 
      -1.71340577e-07       4.78098309e-07      -9.79851904e-07 
       5.85905657e-08       4.79008424e-07      -9.79852088e-07 
       1.70862396e-07       4.79008467e-07      -9.78942153e-07 
      -6.82660430e-08       6.46524638e-07      -1.32401851e-06 
      -1.97923830e-07       6.46524579e-07      -1.32508008e-06 
       6.77075680e-08       6.47586395e-07      -1.32508033e-06 
       1.97365355e-07       6.47586453e-07      -1.32401875e-06 
      -6.82660430e-08       6.46524638e-07      -1.32401851e-06 
      -1.97923830e-07       6.46524579e-07      -1.32508008e-06 
       6.77075680e-08       6.47586395e-07      -1.32508033e-06 
       1.97365355e-07       6.47586453e-07      -1.32401875e-06 
      -7.72783362e-08       8.38899170e-07      -1.71829042e-06 
      -2.23943219e-07       8.38899095e-07      -1.71950363e-06 
       7.66394062e-08       8.40112614e-07      -1.71950395e-06 
       2.23304290e-07       8.40112689e-07      -1.71829074e-06 
      -7.72783362e-08       8.38899170e-07      -1.71829042e-06 
      -2.23943219e-07       8.38899095e-07      -1.71950363e-06 
       7.66394062e-08       8.40112614e-07      -1.71950395e-06 
       2.23304290e-07       8.40112689e-07      -1.71829074e-06 
      -8.61056244e-08       1.05469434e-06      -2.16071460e-06 
      -2.49398743e-07       1.05469425e-06      -2.16207945e-06 
       8.53860811e-08       1.05605947e-06      -2.16207984e-06 
       2.48679199e-07       1.05605957e-06      -2.16071499e-06 
      -8.61056244e-08       1.05469434e-06      -2.16071460e-06 
      -2.49398743e-07       1.05469425e-06      -2.16207945e-06 
       8.53860811e-08       1.05605947e-06      -2.16207984e-06 
       2.48679199e-07       1.05605957e-06      -2.16071499e-06 
      -9.47479060e-08       1.29338253e-06      -2.65024793e-06 
      -2.74290398e-07       1.29338242e-06      -2.65176441e-06 
       9.39475950e-08       1.29489936e-06      -2.65176488e-06 
       2.73490087e-07       1.29489947e-06      -2.65024840e-06 
      -9.47479062e-08       1.29338253e-06      -2.65024793e-06 
      -2.74290398e-07       1.29338242e-06      -2.65176441e-06 
       9.39475950e-08       1.29489936e-06      -2.65176488e-06 
       2.73490087e-07       1.29489947e-06      -2.65024840e-06 
      -1.03198968e-07       1.55445317e-06      -3.18587186e-06 
      -2.98631577e-07       1.55445303e-06      -3.18752395e-06 
       1.02346936e-07       1.55610567e-06      -3.18752451e-06 
       2.97779545e-07       1.55610581e-06      -3.18587242e-06 
      -1.03198968e-07       1.55445317e-06      -3.18587186e-06 
      -2.98631577e-07       1.55445303e-06      -3.18752395e-06 
       1.02346936e-07       1.55610567e-06      -3.18752451e-06 
       2.97779545e-07       1.55610581e-06      -3.18587242e-06 
      -1.11482981e-07       1.83741671e-06      -3.76662201e-06 
      -3.22466769e-07       1.83741655e-06      -3.76840971e-06 
       1.10578823e-07       1.83920490e-06      -3.76841037e-06 
       3.21562612e-07       1.83920505e-06      -3.76662266e-06 
      -1.11482981e-07       1.83741671e-06      -3.76662201e-06 
      -3.22466769e-07       1.83741655e-06      -3.76840971e-06 
       1.10578823e-07       1.83920490e-06      -3.76841037e-06 
       3.21562612e-07       1.83920505e-06      -3.76662266e-06 
      -1.19599940e-07       2.14180115e-06      -4.39156053e-06 
      -3.45795971e-07       2.14180097e-06      -4.39348385e-06 
       1.18643259e-07       2.14372502e-06      -4.39348460e-06 
       3.44839290e-07       2.14372520e-06      -4.39156128e-06 
      -1.19599940e-07       2.14180115e-06      -4.39156053e-06 
      -3.45795971e-07       2.14180097e-06      -4.39348385e-06 
       1.18643259e-07       2.14372502e-06      -4.39348460e-06 
       3.44839290e-07       2.14372520e-06      -4.39156128e-06 
      -1.27549842e-07       2.46713447e-06      -5.05974957e-06 
      -3.68619179e-07       2.46713427e-06      -5.06180850e-06 
       1.26540250e-07       2.46919403e-06      -5.06180935e-06 
       3.67609586e-07       2.46919423e-06      -5.05975042e-06 
      -1.27549842e-07       2.46713447e-06      -5.05974957e-06 
      -3.68619179e-07       2.46713427e-06      -5.06180850e-06 
       1.26540250e-07       2.46919403e-06      -5.06180935e-06 
       3.67609586e-07       2.46919423e-06      -5.05975042e-06 
      -1.35332683e-07       2.81294466e-06      -5.77025129e-06 
      -3.90936388e-07       2.81294444e-06      -5.77244582e-06 
       1.34269798e-07       2.81513991e-06      -5.77244679e-06 
       3.89873502e-07       2.81514013e-06      -5.77025225e-06 
      -1.35332683e-07       2.81294466e-06      -5.77025129e-06 
      -3.90936388e-07       2.81294444e-06      -5.77244582e-06 
       1.34269798e-07       2.81513991e-06      -5.77244679e-06 
       3.89873502e-07       2.81514013e-06      -5.77025225e-06 
      -1.42948458e-07       3.17875972e-06      -6.52212783e-06 
      -4.12747593e-07       3.17875947e-06      -6.52445798e-06 
       1.41831908e-07       3.18109065e-06      -6.52445905e-06 
       4.11631043e-07       3.18109091e-06      -6.52212890e-06 
      -1.42948458e-07       3.17875972e-06      -6.52212783e-06 
      -4.12747593e-07       3.17875947e-06      -6.52445798e-06 
       1.41831908e-07       3.18109065e-06      -6.52445905e-06 
       4.11631043e-07       3.18109091e-06      -6.52212890e-06 
      -1.50397163e-07       3.56410763e-06      -7.31444136e-06 
      -4.34052791e-07       3.56410735e-06      -7.31690711e-06 
       1.49226585e-07       3.56657425e-06      -7.31690829e-06 
       4.32882214e-07       3.56657453e-06      -7.31444254e-06 
      -1.50397163e-07       3.56410763e-06      -7.31444136e-06 
      -4.34052791e-07       3.56410735e-06      -7.31690711e-06 
       1.49226585e-07       3.56657425e-06      -7.31690829e-06 
       4.32882214e-07       3.56657453e-06      -7.31444254e-06 
      -1.57678792e-07       3.96851638e-06      -8.14625402e-06 
      -4.54851979e-07       3.96851607e-06      -8.14885537e-06 
       1.56453833e-07       3.97111869e-06      -8.14885667e-06 
       4.53627019e-07       3.97111900e-06      -8.14625532e-06 
      -1.57678792e-07       3.96851638e-06      -8.14625402e-06 
      -4.54851979e-07       3.96851607e-06      -8.14885537e-06 
       1.56453833e-07       3.97111869e-06      -8.14885667e-06 
       4.53627019e-07       3.97111900e-06      -8.14625532e-06 
      -1.64793344e-07       4.39151396e-06      -9.01662796e-06 
      -4.75145150e-07       4.39151363e-06      -9.01936491e-06 
       1.63513656e-07       4.39425196e-06      -9.01936633e-06 
       4.73865462e-07       4.39425229e-06      -9.01662938e-06 
      -1.64793344e-07       4.39151396e-06      -9.01662796e-06 
      -4.75145150e-07       4.39151363e-06      -9.01936491e-06 
       1.63513656e-07       4.39425196e-06      -9.01936633e-06 
       4.73865462e-07       4.39425229e-06      -9.01662938e-06 
      -1.71740813e-07       4.83262836e-06      -9.92462534e-06 
      -4.94932301e-07       4.83262800e-06      -9.92749790e-06 
       1.70406057e-07       4.83550205e-06      -9.92749944e-06 
       4.93597546e-07       4.83550241e-06      -9.92462688e-06 
      -1.71740813e-07       4.83262836e-06      -9.92462534e-06 
      -4.94932301e-07       4.83262800e-06      -9.92749790e-06 
       1.70406057e-07       4.83550205e-06      -9.92749944e-06 
       4.93597546e-07       4.83550241e-06      -9.92462688e-06 
      -1.78520079e-07       5.29140486e-06      -1.08693340e-05 
      -5.14232351e-07       5.29140446e-06      -1.08723262e-05 
       1.77150342e-07       5.29439822e-06      -1.08723279e-05 
       5.12862615e-07       5.29439861e-06      -1.08693357e-05 
      -1.78520079e-07       5.29140486e-06      -1.08693340e-05 
      -5.14232351e-07       5.29140446e-06      -1.08723262e-05 
       1.77150342e-07       5.29439822e-06      -1.08723279e-05 
       5.12862615e-07       5.29439861e-06      -1.08693357e-05 
      -1.85150510e-07       5.76741006e-06      -1.18498970e-05 
      -5.33084854e-07       5.76740964e-06      -1.18530088e-05 
       1.83745309e-07       5.77052311e-06      -1.18530106e-05 
       5.31679652e-07       5.77052353e-06      -1.18498988e-05 
      -1.85150510e-07       5.76741006e-06      -1.18498970e-05 
      -5.33084854e-07       5.76740964e-06      -1.18530088e-05 
       1.83745309e-07       5.77052311e-06      -1.18530106e-05 
       5.31679652e-07       5.77052353e-06      -1.18498988e-05 
      -1.91632100e-07       6.26022799e-06      -1.28654831e-05 
      -5.51489802e-07       6.26022754e-06      -1.28687144e-05 
       1.90190962e-07       6.26346071e-06      -1.28687163e-05 
       5.50048664e-07       6.26346117e-06      -1.28654850e-05 
      -1.91632100e-07       6.26022799e-06      -1.28654831e-05 
      -5.51489802e-07       6.26022754e-06      -1.28687144e-05 
       1.90190962e-07       6.26346071e-06      -1.28687163e-05 
       5.50048664e-07       6.26346117e-06      -1.28654850e-05 
      -1.97964845e-07       6.76944264e-06      -1.39152611e-05 
      -5.69447193e-07       6.76944216e-06      -1.39186120e-05 
       1.96487306e-07       6.77279504e-06      -1.39186140e-05 
       5.67969654e-07       6.77279552e-06      -1.39152631e-05 
      -1.97964845e-07       6.76944264e-06      -1.39152611e-05 
      -5.69447193e-07       6.76944216e-06      -1.39186120e-05 
       1.96487306e-07       6.77279504e-06      -1.39186140e-05 
       5.67969654e-07       6.77279552e-06      -1.39152631e-05 
      -2.04148739e-07       7.29463802e-06      -1.49983997e-05 
      -5.86957019e-07       7.29463751e-06      -1.50018702e-05 
       2.02634349e-07       7.29811010e-06      -1.50018723e-05 
       5.85442629e-07       7.29811061e-06      -1.49984018e-05 
      -2.04148739e-07       7.29463802e-06      -1.49983997e-05 
      -5.86957019e-07       7.29463751e-06      -1.50018702e-05 
       2.02634349e-07       7.29811010e-06      -1.50018723e-05 
       5.85442629e-07       7.29811061e-06      -1.49984018e-05 
      -2.10183774e-07       7.83539813e-06      -1.61140677e-05 
      -6.04019275e-07       7.83539759e-06      -1.61176578e-05 
       2.08632095e-07       7.83898990e-06      -1.61176601e-05 
       6.02467596e-07       7.83899044e-06      -1.61140700e-05 
      -2.10183774e-07       7.83539813e-06      -1.61140677e-05 
      -6.04019275e-07       7.83539759e-06      -1.61176578e-05 
       2.08632095e-07       7.83898990e-06      -1.61176601e-05 
       6.02467596e-07       7.83899044e-06      -1.61140700e-05 
      -2.16069948e-07       8.39130699e-06      -1.72614340e-05 
      -6.20633955e-07       8.39130642e-06      -1.72651437e-05 
       2.14480550e-07       8.39501844e-06      -1.72651461e-05 
       6.19044557e-07       8.39501901e-06      -1.72614365e-05 
      -2.16069948e-07       8.39130699e-06      -1.72614340e-05 
      -6.20633955e-07       8.39130642e-06      -1.72651437e-05 
       2.14480550e-07       8.39501844e-06      -1.72651461e-05 
       6.19044557e-07       8.39501901e-06      -1.72614365e-05 
      -2.21807252e-07       8.96194859e-06      -1.84396674e-05 
      -6.36801053e-07       8.96194799e-06      -1.84434966e-05 
       2.20179720e-07       8.96577972e-06      -1.84434992e-05 
       6.35173522e-07       8.96578032e-06      -1.84396699e-05 
      -2.21807252e-07       8.96194859e-06      -1.84396674e-05 
      -6.36801053e-07       8.96194799e-06      -1.84434966e-05 
       2.20179720e-07       8.96577972e-06      -1.84434992e-05 
       6.35173522e-07       8.96578032e-06      -1.84396699e-05 
      -2.27395682e-07       9.54690695e-06      -1.96479366e-05 
      -6.52520565e-07       9.54690632e-06      -1.96518854e-05 
       2.25729610e-07       9.55085776e-06      -1.96518881e-05 
       6.50854493e-07       9.55085839e-06      -1.96479392e-05 
      -2.27395682e-07       9.54690695e-06      -1.96479366e-05 
      -6.52520565e-07       9.54690632e-06      -1.96518854e-05 
       2.25729610e-07       9.55085776e-06      -1.96518881e-05 
       6.50854493e-07       9.55085839e-06      -1.96479392e-05 
      -2.32835232e-07       1.01457661e-05      -2.08854103e-05 
      -6.67792483e-07       1.01457654e-05      -2.08894788e-05 
       2.31130226e-07       1.01498366e-05      -2.08894816e-05 
       6.66087478e-07       1.01498372e-05      -2.08854132e-05 
      -2.32835232e-07       1.01457661e-05      -2.08854103e-05 
      -6.67792484e-07       1.01457654e-05      -2.08894788e-05 
       2.31130226e-07       1.01498366e-05      -2.08894816e-05 
       6.66087478e-07       1.01498372e-05      -2.08854132e-05 
      -2.38128275e-07       1.07581273e-05      -2.21512835e-05 
      -6.82639355e-07       1.07581266e-05      -2.21554555e-05 
       2.36397565e-07       1.07623015e-05      -2.21554585e-05 
       6.80908644e-07       1.07623022e-05      -2.21512865e-05 
      -2.38128275e-07       1.07581273e-05      -2.21512835e-05 
      -6.82639355e-07       1.07581266e-05      -2.21554555e-05 
       2.36397565e-07       1.07623015e-05      -2.21554585e-05 
       6.80908644e-07       1.07623022e-05      -2.21512865e-05 
      -2.43290475e-07       1.13836135e-05      -2.34448057e-05 
      -6.97096884e-07       1.13836127e-05      -2.34490813e-05 
       2.41533590e-07       1.13878913e-05      -2.34490843e-05 
       6.95339999e-07       1.13878920e-05      -2.34448087e-05 
      -2.43290475e-07       1.13836135e-05      -2.34448057e-05 
      -6.97096884e-07       1.13836127e-05      -2.34490813e-05 
       2.41533590e-07       1.13878913e-05      -2.34490843e-05 
       6.95339999e-07       1.13878920e-05      -2.34448087e-05 
      -2.48321824e-07       1.20218645e-05      -2.47652516e-05 
      -7.11165065e-07       1.20218637e-05      -2.47696308e-05 
       2.46538308e-07       1.20262460e-05      -2.47696340e-05 
       7.09381550e-07       1.20262468e-05      -2.47652548e-05 
      -2.48321824e-07       1.20218645e-05      -2.47652516e-05 
      -7.11165065e-07       1.20218637e-05      -2.47696308e-05 
       2.46538308e-07       1.20262460e-05      -2.47696340e-05 
       7.09381550e-07       1.20262468e-05      -2.47652548e-05 
      -2.53222316e-07       1.26725204e-05      -2.61118964e-05 
      -7.24843892e-07       1.26725196e-05      -2.61163792e-05 
       2.51411724e-07       1.26770056e-05      -2.61163825e-05 
       7.23033301e-07       1.26770064e-05      -2.61118997e-05 
      -2.53222316e-07       1.26725204e-05      -2.61118964e-05 
      -7.24843892e-07       1.26725196e-05      -2.61163792e-05 
       2.51411724e-07       1.26770056e-05      -2.61163825e-05 
       7.23033301e-07       1.26770064e-05      -2.61118997e-05 
      -2.57991947e-07       1.33352212e-05      -2.74840149e-05 
      -7.38133360e-07       1.33352204e-05      -2.74886013e-05 
       2.56153847e-07       1.33398101e-05      -2.74886047e-05 
       7.36295259e-07       1.33398109e-05      -2.74840183e-05 
      -2.57991947e-07       1.33352212e-05      -2.74840149e-05 
      -7.38133360e-07       1.33352204e-05      -2.74886013e-05 
       2.56153847e-07       1.33398101e-05      -2.74886047e-05 
       7.36295259e-07       1.33398109e-05      -2.74840183e-05 
      -2.62630707e-07       1.40096069e-05      -2.88808820e-05 
      -7.51033460e-07       1.40096060e-05      -2.88855720e-05 
       2.60764678e-07       1.40142994e-05      -2.88855756e-05 
       7.49167431e-07       1.40143003e-05      -2.88808856e-05 
      -2.62630707e-07       1.40096069e-05      -2.88808820e-05 
      -7.51033460e-07       1.40096060e-05      -2.88855720e-05 
       2.60764678e-07       1.40142994e-05      -2.88855756e-05 
       7.49167431e-07       1.40143003e-05      -2.88808856e-05 
      -2.67138594e-07       1.46953175e-05      -3.03017727e-05 
      -7.63544188e-07       1.46953166e-05      -3.03065663e-05 
       2.65244229e-07       1.47001138e-05      -3.03065700e-05 
       7.61649822e-07       1.47001146e-05      -3.03017764e-05 
      -2.67138594e-07       1.46953175e-05      -3.03017727e-05 
      -7.63544188e-07       1.46953166e-05      -3.03065663e-05 
       2.65244229e-07       1.47001138e-05      -3.03065700e-05 
       7.61649822e-07       1.47001146e-05      -3.03017764e-05 
      -2.71515598e-07       1.53919931e-05      -3.17459619e-05 
      -7.75665535e-07       1.53919922e-05      -3.17508590e-05 
       2.69592504e-07       1.53968930e-05      -3.17508628e-05 
       7.73742441e-07       1.53968939e-05      -3.17459657e-05 
      -2.71515598e-07       1.53919931e-05      -3.17459619e-05 
      -7.75665535e-07       1.53919922e-05      -3.17508590e-05 