# vtk DataFile Version 2.0
./output/onsasExample_BladeCantileverBeamPitch_windVel3DDynamic 3D/onsasExample_BladeCantileverBeamPitch_windVel3DDynamic 3D_0282.vtk
ASCII
DATASET UNSTRUCTURED_GRID

POINTS 800 float
      -2.351740e-23      -7.180703e-02      -7.180703e-02 
      -1.944187e-23       7.180703e-02      -7.180703e-02 
       2.351740e-23       7.180703e-02       7.180703e-02 
       1.944187e-23      -7.180703e-02       7.180703e-02 
       2.000000e-01      -7.180702e-02      -7.180706e-02 
       2.000000e-01       7.180705e-02      -7.180706e-02 
       2.000000e-01       7.180705e-02       7.180700e-02 
       2.000000e-01      -7.180702e-02       7.180700e-02 
       2.000000e-01      -7.180702e-02      -7.180706e-02 
       2.000000e-01       7.180705e-02      -7.180706e-02 
       2.000000e-01       7.180705e-02       7.180700e-02 
       2.000000e-01      -7.180702e-02       7.180700e-02 
       4.000000e-01      -7.180698e-02      -7.180715e-02 
       3.999999e-01       7.180709e-02      -7.180715e-02 
       4.000000e-01       7.180709e-02       7.180692e-02 
       4.000001e-01      -7.180698e-02       7.180692e-02 
       4.000000e-01      -7.180698e-02      -7.180715e-02 
       3.999999e-01       7.180709e-02      -7.180715e-02 
       4.000000e-01       7.180709e-02       7.180692e-02 
       4.000001e-01      -7.180698e-02       7.180692e-02 
       6.000000e-01      -7.180691e-02      -7.180729e-02 
       5.999999e-01       7.180716e-02      -7.180729e-02 
       6.000000e-01       7.180716e-02       7.180678e-02 
       6.000001e-01      -7.180691e-02       7.180678e-02 
       6.000000e-01      -7.180691e-02      -7.180729e-02 
       5.999999e-01       7.180716e-02      -7.180729e-02 
       6.000000e-01       7.180716e-02       7.180678e-02 
       6.000001e-01      -7.180691e-02       7.180678e-02 
       8.000000e-01      -7.180682e-02      -7.180748e-02 
       7.999999e-01       7.180725e-02      -7.180748e-02 
       8.000000e-01       7.180725e-02       7.180658e-02 
       8.000001e-01      -7.180681e-02       7.180658e-02 
       8.000000e-01      -7.180682e-02      -7.180748e-02 
       7.999999e-01       7.180725e-02      -7.180748e-02 
       8.000000e-01       7.180725e-02       7.180658e-02 
       8.000001e-01      -7.180681e-02       7.180658e-02 
       9.999999e-01      -7.180669e-02      -7.180773e-02 
       9.999999e-01       7.180737e-02      -7.180773e-02 
       1.000000e+00       7.180737e-02       7.180633e-02 
       1.000000e+00      -7.180669e-02       7.180633e-02 
       9.999999e-01      -7.180669e-02      -7.180773e-02 
       9.999999e-01       7.180737e-02      -7.180773e-02 
       1.000000e+00       7.180737e-02       7.180633e-02 
       1.000000e+00      -7.180669e-02       7.180633e-02 
       1.200000e+00      -7.180655e-02      -7.180804e-02 
       1.200000e+00       7.180752e-02      -7.180804e-02 
       1.200000e+00       7.180752e-02       7.180603e-02 
       1.200000e+00      -7.180655e-02       7.180603e-02 
       1.200000e+00      -7.180655e-02      -7.180804e-02 
       1.200000e+00       7.180752e-02      -7.180804e-02 
       1.200000e+00       7.180752e-02       7.180603e-02 
       1.200000e+00      -7.180655e-02       7.180603e-02 
       1.400000e+00      -7.180638e-02      -7.180839e-02 
       1.400000e+00       7.180769e-02      -7.180839e-02 
       1.400000e+00       7.180769e-02       7.180568e-02 
       1.400000e+00      -7.180638e-02       7.180568e-02 
       1.400000e+00      -7.180638e-02      -7.180839e-02 
       1.400000e+00       7.180769e-02      -7.180839e-02 
       1.400000e+00       7.180769e-02       7.180568e-02 
       1.400000e+00      -7.180638e-02       7.180568e-02 
       1.600000e+00      -7.180618e-02      -7.180879e-02 
       1.600000e+00       7.180788e-02      -7.180879e-02 
       1.600000e+00       7.180788e-02       7.180527e-02 
       1.600000e+00      -7.180618e-02       7.180527e-02 
       1.600000e+00      -7.180618e-02      -7.180879e-02 
       1.600000e+00       7.180788e-02      -7.180879e-02 
       1.600000e+00       7.180788e-02       7.180527e-02 
       1.600000e+00      -7.180618e-02       7.180527e-02 
       1.800000e+00      -7.180596e-02      -7.180925e-02 
       1.800000e+00       7.180810e-02      -7.180925e-02 
       1.800000e+00       7.180810e-02       7.180482e-02 
       1.800000e+00      -7.180596e-02       7.180482e-02 
       1.800000e+00      -7.180596e-02      -7.180925e-02 
       1.800000e+00       7.180810e-02      -7.180925e-02 
       1.800000e+00       7.180810e-02       7.180482e-02 
       1.800000e+00      -7.180596e-02       7.180482e-02 
       2.000000e+00      -7.180572e-02      -7.180975e-02 
       2.000000e+00       7.180834e-02      -7.180975e-02 
       2.000000e+00       7.180835e-02       7.180432e-02 
       2.000000e+00      -7.180572e-02       7.180432e-02 
       2.000000e+00      -7.180572e-02      -7.180975e-02 
       2.000000e+00       7.180834e-02      -7.180975e-02 
       2.000000e+00       7.180835e-02       7.180432e-02 
       2.000000e+00      -7.180572e-02       7.180432e-02 
       2.200000e+00      -7.180546e-02      -7.181030e-02 
       2.200000e+00       7.180861e-02      -7.181030e-02 
       2.200000e+00       7.180861e-02       7.180377e-02 
       2.200000e+00      -7.180546e-02       7.180377e-02 
       2.200000e+00      -7.180546e-02      -7.181030e-02 
       2.200000e+00       7.180861e-02      -7.181030e-02 
       2.200000e+00       7.180861e-02       7.180377e-02 
       2.200000e+00      -7.180546e-02       7.180377e-02 
       2.400000e+00      -7.180517e-02      -7.181089e-02 
       2.400000e+00       7.180890e-02      -7.181089e-02 
       2.400000e+00       7.180890e-02       7.180317e-02 
       2.400000e+00      -7.180517e-02       7.180317e-02 
       2.400000e+00      -7.180517e-02      -7.181089e-02 
       2.400000e+00       7.180890e-02      -7.181089e-02 
       2.400000e+00       7.180890e-02       7.180317e-02 
       2.400000e+00      -7.180517e-02       7.180317e-02 
       2.600000e+00      -7.180486e-02      -7.181153e-02 
       2.600000e+00       7.180920e-02      -7.181153e-02 
       2.600000e+00       7.180921e-02       7.180253e-02 
       2.600000e+00      -7.180486e-02       7.180253e-02 
       2.600000e+00      -7.180486e-02      -7.181153e-02 
       2.600000e+00       7.180920e-02      -7.181153e-02 
       2.600000e+00       7.180921e-02       7.180253e-02 
       2.600000e+00      -7.180486e-02       7.180253e-02 
       2.800000e+00      -7.180453e-02      -7.181222e-02 
       2.800000e+00       7.180953e-02      -7.181222e-02 
       2.800000e+00       7.180954e-02       7.180185e-02 
       2.800000e+00      -7.180453e-02       7.180185e-02 
       2.800000e+00      -7.180453e-02      -7.181222e-02 
       2.800000e+00       7.180953e-02      -7.181222e-02 
       2.800000e+00       7.180954e-02       7.180185e-02 
       2.800000e+00      -7.180453e-02       7.180185e-02 
       3.000000e+00      -7.180418e-02      -7.181294e-02 
       3.000000e+00       7.180989e-02      -7.181295e-02 
       3.000000e+00       7.180989e-02       7.180112e-02 
       3.000000e+00      -7.180418e-02       7.180112e-02 
       3.000000e+00      -7.180418e-02      -7.181294e-02 
       3.000000e+00       7.180989e-02      -7.181295e-02 
       3.000000e+00       7.180989e-02       7.180112e-02 
       3.000000e+00      -7.180418e-02       7.180112e-02 
       3.200000e+00      -7.180381e-02      -7.181372e-02 
       3.200000e+00       7.181026e-02      -7.181372e-02 
       3.200000e+00       7.181026e-02       7.180035e-02 
       3.200000e+00      -7.180381e-02       7.180035e-02 
       3.200000e+00      -7.180381e-02      -7.181372e-02 
       3.200000e+00       7.181026e-02      -7.181372e-02 
       3.200000e+00       7.181026e-02       7.180035e-02 
       3.200000e+00      -7.180381e-02       7.180035e-02 
       3.400000e+00      -7.180342e-02      -7.181453e-02 
       3.400000e+00       7.181065e-02      -7.181453e-02 
       3.400000e+00       7.181065e-02       7.179954e-02 
       3.400000e+00      -7.180342e-02       7.179954e-02 
       3.400000e+00      -7.180342e-02      -7.181453e-02 
       3.400000e+00       7.181065e-02      -7.181453e-02 
       3.400000e+00       7.181065e-02       7.179954e-02 
       3.400000e+00      -7.180342e-02       7.179954e-02 
       3.600000e+00      -7.180301e-02      -7.181538e-02 
       3.600000e+00       7.181106e-02      -7.181538e-02 
       3.600000e+00       7.181106e-02       7.179868e-02 
       3.600000e+00      -7.180301e-02       7.179869e-02 
       3.600000e+00      -7.180301e-02      -7.181538e-02 
       3.600000e+00       7.181106e-02      -7.181538e-02 
       3.600000e+00       7.181106e-02       7.179868e-02 
       3.600000e+00      -7.180301e-02       7.179869e-02 
       3.800000e+00      -7.180258e-02      -7.181627e-02 
       3.800000e+00       7.181149e-02      -7.181627e-02 
       3.800000e+00       7.181149e-02       7.179779e-02 
       3.800000e+00      -7.180258e-02       7.179779e-02 
       3.800000e+00      -7.180258e-02      -7.181627e-02 
       3.800000e+00       7.181149e-02      -7.181627e-02 
       3.800000e+00       7.181149e-02       7.179779e-02 
       3.800000e+00      -7.180258e-02       7.179779e-02 
       4.000000e+00      -7.180213e-02      -7.181720e-02 
       3.999999e+00       7.181194e-02      -7.181721e-02 
       4.000000e+00       7.181194e-02       7.179686e-02 
       4.000001e+00      -7.180213e-02       7.179686e-02 
       4.000000e+00      -7.180213e-02      -7.181720e-02 
       3.999999e+00       7.181194e-02      -7.181721e-02 
       4.000000e+00       7.181194e-02       7.179686e-02 
       4.000001e+00      -7.180213e-02       7.179686e-02 
       4.200000e+00      -7.180166e-02      -7.181817e-02 
[...]
POINT_DATA       800 
VECTORS Displacements float
      -2.35173992e-23       1.38777878e-17      -1.38777878e-17 
      -1.94418689e-23       0.00000000e+00       0.00000000e+00 
       2.35173992e-23      -1.38777878e-17       1.38777878e-17 
       1.94418689e-23       0.00000000e+00       0.00000000e+00 
      -1.06656413e-08       1.38327836e-08      -2.86723624e-08 
      -3.05772321e-08       1.38327822e-08      -2.88240842e-08 
       1.05821745e-08       1.39845097e-08      -2.88240901e-08 
       3.04937653e-08       1.39845111e-08      -2.86723683e-08 
      -1.06656413e-08       1.38327836e-08      -2.86723624e-08 
      -3.05772321e-08       1.38327822e-08      -2.88240842e-08 
       1.05821745e-08       1.39845097e-08      -2.88240901e-08 
       3.04937653e-08       1.39845111e-08      -2.86723683e-08 
      -2.11396504e-08       5.51309064e-08      -1.14133219e-07 
      -6.05837434e-08       5.51309010e-08      -1.14436657e-07 
       2.09725266e-08       5.54343615e-08      -1.14436681e-07 
       6.04166197e-08       5.54343669e-08      -1.14133242e-07 
      -2.11396504e-08       5.51309064e-08      -1.14133219e-07 
      -6.05837434e-08       5.51309010e-08      -1.14436657e-07 
       2.09725266e-08       5.54343615e-08      -1.14436681e-07 
       6.04166197e-08       5.54343669e-08      -1.14133242e-07 
      -3.14220254e-08       1.23366442e-07      -2.55320637e-07 
      -9.00195322e-08       1.23366430e-07      -2.55775786e-07 
       3.11710580e-08       1.23821629e-07      -2.55775837e-07 
       8.97685647e-08       1.23821640e-07      -2.55320688e-07 
      -3.14220254e-08       1.23366442e-07      -2.55320637e-07 
      -9.00195322e-08       1.23366430e-07      -2.55775786e-07 
       3.11710580e-08       1.23821629e-07      -2.55775837e-07 
       8.97685647e-08       1.23821640e-07      -2.55320688e-07 
      -4.15127648e-08       2.18011463e-07      -4.51172682e-07 
      -1.18884597e-07       2.18011442e-07      -4.51779537e-07 
       4.11777705e-08       2.18618384e-07      -4.51779627e-07 
       1.18549602e-07       2.18618405e-07      -4.51172771e-07 
      -4.15127648e-08       2.18011463e-07      -4.51172682e-07 
      -1.18884597e-07       2.18011442e-07      -4.51779537e-07 
       4.11777705e-08       2.18618384e-07      -4.51779627e-07 
       1.18549602e-07       2.18618405e-07      -4.51172771e-07 
      -5.14118664e-08       3.38538043e-07      -7.00627420e-07 
      -1.47178935e-07       3.38538011e-07      -7.01385977e-07 
       5.09926661e-08       3.39296700e-07      -7.01386114e-07 
       1.46759735e-07       3.39296732e-07      -7.00627557e-07 
      -5.14118664e-08       3.38538043e-07      -7.00627420e-07 
      -1.47178935e-07       3.38538011e-07      -7.01385977e-07 
       5.09926661e-08       3.39296700e-07      -7.01386114e-07 
       1.46759735e-07       3.39296732e-07      -7.00627557e-07 
      -6.11193289e-08       4.84418255e-07      -1.00262292e-06 
      -1.74902546e-07       4.84418210e-07      -1.00353317e-06 
       6.06157464e-08       4.85328652e-07      -1.00353337e-06 
       1.74398963e-07       4.85328697e-07      -1.00262311e-06 
      -6.11193289e-08       4.84418255e-07      -1.00262292e-06 
      -1.74902546e-07       4.84418210e-07      -1.00353317e-06 
       6.06157464e-08       4.85328652e-07      -1.00353337e-06 
       1.74398963e-07       4.85328697e-07      -1.00262311e-06 
      -7.06351502e-08       6.55124173e-07      -1.35609724e-06 
      -2.02055426e-07       6.55124113e-07      -1.35715919e-06 
       7.00470133e-08       6.56186310e-07      -1.35715945e-06 
       2.01467289e-07       6.56186370e-07      -1.35609750e-06 
      -7.06351502e-08       6.55124173e-07      -1.35609724e-06 
      -2.02055426e-07       6.55124113e-07      -1.35715919e-06 
       7.00470133e-08       6.56186310e-07      -1.35715945e-06 
       2.01467289e-07       6.56186370e-07      -1.35609750e-06 
      -7.99593285e-08       8.50127870e-07      -1.75998846e-06 
      -2.28637575e-07       8.50127793e-07      -1.76120210e-06 
       7.92864683e-08       8.51341750e-07      -1.76120243e-06 
       2.27964715e-07       8.51341827e-07      -1.75998879e-06 
      -7.99593285e-08       8.50127870e-07      -1.75998846e-06 
      -2.28637575e-07       8.50127793e-07      -1.76120210e-06 
       7.92864683e-08       8.51341750e-07      -1.76120243e-06 
       2.27964715e-07       8.51341827e-07      -1.75998879e-06 
      -8.90918621e-08       1.06890142e-06      -2.21323463e-06 
      -2.54648991e-07       1.06890132e-06      -2.21459996e-06 
       8.83341134e-08       1.07026704e-06      -2.21460037e-06 
       2.53891242e-07       1.07026714e-06      -2.21323504e-06 
      -8.90918621e-08       1.06890142e-06      -2.21323463e-06 
      -2.54648991e-07       1.06890132e-06      -2.21459996e-06 
       8.83341134e-08       1.07026704e-06      -2.21460037e-06 
       2.53891242e-07       1.07026714e-06      -2.21323504e-06 
      -9.80327490e-08       1.31091689e-06      -2.71477384e-06 
      -2.80089672e-07       1.31091678e-06      -2.71629084e-06 
       9.71899503e-08       1.31243426e-06      -2.71629134e-06 
       2.79246873e-07       1.31243438e-06      -2.71477433e-06 
      -9.80327493e-08       1.31091689e-06      -2.71477384e-06 
      -2.80089672e-07       1.31091678e-06      -2.71629084e-06 
       9.71899503e-08       1.31243426e-06      -2.71629134e-06 
       2.79246873e-07       1.31243438e-06      -2.71477433e-06 
      -1.06775340e-07       1.57566371e-06      -3.26356940e-06 
      -3.04972971e-07       1.57566358e-06      -3.26522211e-06 
       1.05877532e-07       1.57731686e-06      -3.26522270e-06 
       3.04075163e-07       1.57731699e-06      -3.26356999e-06 
      -1.06775340e-07       1.57566371e-06      -3.26356940e-06 
      -3.04972971e-07       1.57566358e-06      -3.26522211e-06 
       1.05877532e-07       1.57731686e-06      -3.26522270e-06 
       3.04075163e-07       1.57731699e-06      -3.26356999e-06 
      -1.15342989e-07       1.86265186e-06      -3.85863599e-06 
      -3.29341580e-07       1.86265170e-06      -3.86042441e-06 
       1.14389748e-07       1.86444077e-06      -3.86042509e-06 
       3.28388340e-07       1.86444093e-06      -3.85863668e-06 
      -1.15342989e-07       1.86265186e-06      -3.85863599e-06 
      -3.29341580e-07       1.86265170e-06      -3.86042441e-06 
       1.14389748e-07       1.86444077e-06      -3.86042509e-06 
       3.28388340e-07       1.86444093e-06      -3.85863668e-06 
      -1.23735693e-07       2.17140818e-06      -4.49901263e-06 
      -3.53195497e-07       2.17140800e-06      -4.50093674e-06 
       1.22726603e-07       2.17333287e-06      -4.50093753e-06 
       3.52186408e-07       2.17333306e-06      -4.49901342e-06 
      -1.23735693e-07       2.17140818e-06      -4.49901263e-06 
      -3.53195497e-07       2.17140800e-06      -4.50093674e-06 
       1.22726603e-07       2.17333287e-06      -4.50093753e-06 
       3.52186408e-07       2.17333306e-06      -4.49901342e-06 
      -1.31953446e-07       2.50145955e-06      -5.18373833e-06 
      -3.76534717e-07       2.50145934e-06      -5.18579814e-06 
       1.30888100e-07       2.50352002e-06      -5.18579903e-06 
       3.75469371e-07       2.50352022e-06      -5.18373923e-06 
      -1.31953446e-07       2.50145955e-06      -5.18373833e-06 
      -3.76534717e-07       2.50145934e-06      -5.18579814e-06 
       1.30888100e-07       2.50352002e-06      -5.18579903e-06 
       3.75469371e-07       2.50352022e-06      -5.18373923e-06 
      -1.39996245e-07       2.85233282e-06      -5.91185210e-06 
      -3.99359235e-07       2.85233259e-06      -5.91404760e-06 
       1.38874244e-07       2.85452906e-06      -5.91404861e-06 
       3.98237234e-07       2.85452930e-06      -5.91185311e-06 
      -1.39996245e-07       2.85233282e-06      -5.91185210e-06 
      -3.99359235e-07       2.85233259e-06      -5.91404760e-06 
       1.38874244e-07       2.85452906e-06      -5.91404861e-06 
       3.98237234e-07       2.85452930e-06      -5.91185311e-06 
      -1.47864086e-07       3.22355486e-06      -6.68239296e-06 
      -4.21669047e-07       3.22355460e-06      -6.68472416e-06 
       1.46685040e-07       3.22588688e-06      -6.68472528e-06 
       4.20490001e-07       3.22588714e-06      -6.68239409e-06 
      -1.47864086e-07       3.22355486e-06      -6.68239296e-06 
      -4.21669047e-07       3.22355460e-06      -6.68472416e-06 
       1.46685040e-07       3.22588688e-06      -6.68472528e-06 
       4.20490001e-07       3.22588714e-06      -6.68239409e-06 
      -1.55556963e-07       3.61465252e-06      -7.49439993e-06 
      -4.43464149e-07       3.61465223e-06      -7.49686682e-06 
       1.54320493e-07       3.61712032e-06      -7.49686806e-06 
       4.42227678e-07       3.61712061e-06      -7.49440118e-06 
      -1.55556963e-07       3.61465252e-06      -7.49439993e-06 
      -4.43464149e-07       3.61465223e-06      -7.49686682e-06 
       1.54320493e-07       3.61712032e-06      -7.49686806e-06 
       4.42227678e-07       3.61712061e-06      -7.49440118e-06 
      -1.63074872e-07       4.02515267e-06      -8.34691202e-06 
      -4.64744534e-07       4.02515235e-06      -8.34951460e-06 
       1.61780605e-07       4.02775624e-06      -8.34951596e-06 
       4.63450268e-07       4.02775656e-06      -8.34691339e-06 
      -1.63074872e-07       4.02515267e-06      -8.34691202e-06 
      -4.64744534e-07       4.02515235e-06      -8.34951460e-06 
       1.61780605e-07       4.02775624e-06      -8.34951596e-06 
       4.63450268e-07       4.02775656e-06      -8.34691339e-06 
      -1.70417809e-07       4.45458216e-06      -9.23896825e-06 
      -4.85510201e-07       4.45458181e-06      -9.24170651e-06 
       1.69065383e-07       4.45732152e-06      -9.24170801e-06 
       4.84157775e-07       4.45732186e-06      -9.23896974e-06 
      -1.70417809e-07       4.45458216e-06      -9.23896825e-06 
      -4.85510201e-07       4.45458181e-06      -9.24170651e-06 
       1.69065383e-07       4.45732152e-06      -9.24170801e-06 
       4.84157775e-07       4.45732186e-06      -9.23896974e-06 
      -1.77585770e-07       4.90246786e-06      -1.01696076e-05 
      -5.05761144e-07       4.90246749e-06      -1.01724816e-05 
       1.76174830e-07       4.90534300e-06      -1.01724832e-05 
       5.04350205e-07       4.90534337e-06      -1.01696092e-05 
      -1.77585770e-07       4.90246786e-06      -1.01696076e-05 
      -5.05761144e-07       4.90246749e-06      -1.01724816e-05 
       1.76174830e-07       4.90534300e-06      -1.01724832e-05 
       5.04350205e-07       4.90534337e-06      -1.01696092e-05 
      -1.84575958e-07       5.36835369e-06      -1.11378933e-05 
      -5.25514127e-07       5.36835329e-06      -1.11408870e-05 
       1.83127579e-07       5.37134864e-06      -1.11408888e-05 
       5.24065748e-07       5.37134905e-06      -1.11378951e-05 
      -1.84575958e-07       5.36835369e-06      -1.11378933e-05 
      -5.25514127e-07       5.36835329e-06      -1.11408870e-05 
       1.83127579e-07       5.37134864e-06      -1.11408888e-05 
       5.24065748e-07       5.37134905e-06      -1.11378951e-05 
      -1.91408176e-07       5.85180393e-06      -1.21429403e-05 
      -5.44808513e-07       5.85180350e-06      -1.21460537e-05 
       1.89921849e-07       5.85491869e-06      -1.21460556e-05 
       5.43322186e-07       5.85491913e-06      -1.21429422e-05 
      -1.91408176e-07       5.85180393e-06      -1.21429403e-05 
      -5.44808513e-07       5.85180350e-06      -1.21460537e-05 
       1.89921849e-07       5.85491869e-06      -1.21460556e-05 
       5.43322186e-07       5.85491913e-06      -1.21429422e-05 
      -1.98082415e-07       6.35239992e-06      -1.31838893e-05 
      -5.63644295e-07       6.35239945e-06      -1.31871224e-05 
       1.96557647e-07       6.35563450e-06      -1.31871244e-05 
       5.62119526e-07       6.35563496e-06      -1.31838913e-05 
      -1.98082415e-07       6.35239992e-06      -1.31838893e-05 
      -5.63644295e-07       6.35239945e-06      -1.31871224e-05 
       1.96557647e-07       6.35563450e-06      -1.31871244e-05 
       5.62119526e-07       6.35563496e-06      -1.31838913e-05 
      -2.04598674e-07       6.86972300e-06      -1.42598808e-05 
      -5.82021467e-07       6.86972250e-06      -1.42632336e-05 
       2.03034977e-07       6.87307739e-06      -1.42632358e-05 
       5.80457771e-07       6.87307789e-06      -1.42598830e-05 
      -2.04598674e-07       6.86972300e-06      -1.42598808e-05 
      -5.82021467e-07       6.86972250e-06      -1.42632336e-05 
       2.03034977e-07       6.87307739e-06      -1.42632358e-05 
       5.80457771e-07       6.87307789e-06      -1.42598830e-05 
      -2.10956943e-07       7.40335450e-06      -1.53700556e-05 
      -5.99940025e-07       7.40335397e-06      -1.53735281e-05 
       2.09353847e-07       7.40682871e-06      -1.53735304e-05 
       5.98336928e-07       7.40682924e-06      -1.53700579e-05 
      -2.10956943e-07       7.40335450e-06      -1.53700556e-05 
      -5.99940025e-07       7.40335397e-06      -1.53735281e-05 
       2.09353847e-07       7.40682871e-06      -1.53735304e-05 
       5.98336928e-07       7.40682924e-06      -1.53700579e-05 
      -2.17157219e-07       7.95287578e-06      -1.65135542e-05 
      -6.17399960e-07       7.95287522e-06      -1.65171465e-05 
       2.15514262e-07       7.95646980e-06      -1.65171489e-05 
       6.15757004e-07       7.95647036e-06      -1.65135566e-05 
      -2.17157219e-07       7.95287578e-06      -1.65135542e-05 
      -6.17399960e-07       7.95287522e-06      -1.65171465e-05 
       2.15514262e-07       7.95646980e-06      -1.65171489e-05 
       6.15757004e-07       7.95647036e-06      -1.65135566e-05 
      -2.23199494e-07       8.51786817e-06      -1.76895174e-05 
      -6.34401269e-07       8.51786758e-06      -1.76932294e-05 
       2.21516228e-07       8.52158201e-06      -1.76932319e-05 
       6.32718003e-07       8.52158260e-06      -1.76895199e-05 
      -2.23199494e-07       8.51786817e-06      -1.76895174e-05 
      -6.34401269e-07       8.51786758e-06      -1.76932294e-05 
       2.21516228e-07       8.52158201e-06      -1.76932319e-05 
       6.32718003e-07       8.52158260e-06      -1.76895199e-05 
      -2.29083762e-07       9.09791301e-06      -1.88970857e-05 
      -6.50943943e-07       9.09791239e-06      -1.89009174e-05 
       2.27359753e-07       9.10174666e-06      -1.89009201e-05 
       6.49219935e-07       9.10174728e-06      -1.88970884e-05 
      -2.29083762e-07       9.09791301e-06      -1.88970857e-05 
      -6.50943943e-07       9.09791239e-06      -1.89009174e-05 
       2.27359753e-07       9.10174666e-06      -1.89009201e-05 
       6.49219935e-07       9.10174728e-06      -1.88970884e-05 
      -2.34810018e-07       9.69259164e-06      -2.01353999e-05 
      -6.67027979e-07       9.69259099e-06      -2.01393513e-05 
       2.33044840e-07       9.69654511e-06      -2.01393541e-05 
       6.65262801e-07       9.69654576e-06      -2.01354027e-05 
      -2.34810018e-07       9.69259164e-06      -2.01353999e-05 
      -6.67027979e-07       9.69259099e-06      -2.01393513e-05 
       2.33044840e-07       9.69654511e-06      -2.01393541e-05 
       6.65262801e-07       9.69654576e-06      -2.01354027e-05 
      -2.40378256e-07       1.03014854e-05      -2.14036005e-05 
      -6.82653369e-07       1.03014847e-05      -2.14076717e-05 
       2.38571497e-07       1.03055587e-05      -2.14076746e-05 
       6.80846609e-07       1.03055594e-05      -2.14036035e-05 
      -2.40378256e-07       1.03014854e-05      -2.14036005e-05 
      -6.82653369e-07       1.03014847e-05      -2.14076717e-05 
       2.38571497e-07       1.03055587e-05      -2.14076746e-05 
       6.80846610e-07       1.03055594e-05      -2.14036035e-05 
      -2.45789426e-07       1.09241926e-05      -2.27008525e-05 
      -6.97840543e-07       1.09241919e-05      -2.27050274e-05 
       2.43955133e-07       1.09283698e-05      -2.27050305e-05 
       6.96006248e-07       1.09283705e-05      -2.27008556e-05 
      -2.45789426e-07       1.09241926e-05      -2.27008525e-05 
      -6.97840543e-07       1.09241919e-05      -2.27050274e-05 
       2.43955133e-07       1.09283698e-05      -2.27050305e-05 
       6.96006248e-07       1.09283705e-05      -2.27008556e-05 
      -2.51060615e-07       1.15603321e-05      -2.40263745e-05 
      -7.12626355e-07       1.15603314e-05      -2.40306531e-05 
       2.49198295e-07       1.15646131e-05      -2.40306563e-05 
       7.10764034e-07       1.15646138e-05      -2.40263777e-05 
      -2.51060615e-07       1.15603321e-05      -2.40263745e-05 
      -7.12626355e-07       1.15603314e-05      -2.40306531e-05 
       2.49198295e-07       1.15646131e-05      -2.40306563e-05 
       7.10764034e-07       1.15646138e-05      -2.40263777e-05 
      -2.56191814e-07       1.22095399e-05      -2.53794120e-05 
      -7.27010798e-07       1.22095391e-05      -2.53837944e-05 
       2.54300991e-07       1.22139247e-05      -2.53837977e-05 
       7.25119975e-07       1.22139255e-05      -2.53794153e-05 
      -2.56191814e-07       1.22095399e-05      -2.53794120e-05 
      -7.27010798e-07       1.22095391e-05      -2.53837944e-05 
       2.54300991e-07       1.22139247e-05      -2.53837977e-05 
       7.25119975e-07       1.22139255e-05      -2.53794153e-05 
      -2.61183018e-07       1.28714519e-05      -2.67592104e-05 
      -7.40993868e-07       1.28714511e-05      -2.67636966e-05 
       2.59263226e-07       1.28759406e-05      -2.67637000e-05 
       7.39074075e-07       1.28759414e-05      -2.67592139e-05 
      -2.61183018e-07       1.28714519e-05      -2.67592104e-05 
      -7.40993868e-07       1.28714511e-05      -2.67636966e-05 
       2.59263226e-07       1.28759406e-05      -2.67637000e-05 
       7.39074075e-07       1.28759414e-05      -2.67592139e-05 
      -2.66034221e-07       1.35457042e-05      -2.81650152e-05 
      -7.54575556e-07       1.35457033e-05      -2.81696051e-05 
       2.64085007e-07       1.35502967e-05      -2.81696087e-05 
       7.52626342e-07       1.35502975e-05      -2.81650188e-05 
      -2.66034221e-07       1.35457042e-05      -2.81650152e-05 
      -7.54575556e-07       1.35457033e-05      -2.81696051e-05 
       2.64085007e-07       1.35502967e-05      -2.81696087e-05 
       7.52626342e-07       1.35502975e-05      -2.81650188e-05 
      -2.70745415e-07       1.42319327e-05      -2.95960717e-05 
      -7.67755856e-07       1.42319318e-05      -2.96007654e-05 
       2.68766341e-07       1.42366291e-05      -2.96007691e-05 
       7.65776782e-07       1.42366300e-05      -2.95960755e-05 
      -2.70745415e-07       1.42319327e-05      -2.95960717e-05 
      -7.67755856e-07       1.42319318e-05      -2.96007654e-05 
       2.68766341e-07       1.42366291e-05      -2.96007691e-05 
       7.65776782e-07       1.42366300e-05      -2.95960755e-05 
      -2.75316594e-07       1.49297735e-05      -3.10516255e-05 
      -7.80534763e-07       1.49297726e-05      -3.10564229e-05 
       2.73307235e-07       1.49345737e-05      -3.10564268e-05 
       7.78525403e-07       1.49345746e-05      -3.10516294e-05 
      -2.75316594e-07       1.49297735e-05      -3.10516255e-05 
      -7.80534763e-07       1.49297726e-05      -3.10564229e-05 
       2.73307235e-07       1.49345737e-05      -3.10564268e-05 
       7.78525403e-07       1.49345746e-05      -3.10516294e-05 
      -2.79747750e-07       1.56388625e-05      -3.25309219e-05 
      -7.92912267e-07       1.56388616e-05      -3.25358231e-05 
       2.77707694e-07       1.56437666e-05      -3.25358271e-05 
       7.90872211e-07       1.56437675e-05      -3.25309259e-05 
      -2.79747750e-07       1.56388625e-05      -3.25309219e-05 
      -7.92912267e-07       1.56388616e-05      -3.25358231e-05 