# vtk DataFile Version 2.0
./output/onsasExample_BladeCantileverBeamPitch_windVel3DDynamic 3D/onsasExample_BladeCantileverBeamPitch_windVel3DDynamic 3D_0075.vtk
ASCII
DATASET UNSTRUCTURED_GRID

POINTS 800 float
      -6.436489e-25      -7.180703e-02      -7.180703e-02 
       1.265009e-23       7.180703e-02      -7.180703e-02 
       6.436489e-25       7.180703e-02       7.180703e-02 
      -1.265009e-23      -7.180703e-02       7.180703e-02 
       2.000000e-01      -7.180702e-02      -7.180706e-02 
       2.000000e-01       7.180705e-02      -7.180706e-02 
       2.000000e-01       7.180705e-02       7.180701e-02 
       2.000000e-01      -7.180702e-02       7.180701e-02 
       2.000000e-01      -7.180702e-02      -7.180706e-02 
       2.000000e-01       7.180705e-02      -7.180706e-02 
       2.000000e-01       7.180705e-02       7.180701e-02 
       2.000000e-01      -7.180702e-02       7.180701e-02 
       4.000000e-01      -7.180698e-02      -7.180713e-02 
       3.999999e-01       7.180709e-02      -7.180713e-02 
       4.000000e-01       7.180709e-02       7.180694e-02 
       4.000001e-01      -7.180698e-02       7.180694e-02 
       4.000000e-01      -7.180698e-02      -7.180713e-02 
       3.999999e-01       7.180709e-02      -7.180713e-02 
       4.000000e-01       7.180709e-02       7.180694e-02 
       4.000001e-01      -7.180698e-02       7.180694e-02 
       6.000000e-01      -7.180691e-02      -7.180725e-02 
       5.999999e-01       7.180716e-02      -7.180725e-02 
       6.000000e-01       7.180716e-02       7.180682e-02 
       6.000001e-01      -7.180691e-02       7.180682e-02 
       6.000000e-01      -7.180691e-02      -7.180725e-02 
       5.999999e-01       7.180716e-02      -7.180725e-02 
       6.000000e-01       7.180716e-02       7.180682e-02 
       6.000001e-01      -7.180691e-02       7.180682e-02 
       8.000000e-01      -7.180682e-02      -7.180741e-02 
       7.999999e-01       7.180725e-02      -7.180741e-02 
       8.000000e-01       7.180725e-02       7.180666e-02 
       8.000001e-01      -7.180682e-02       7.180666e-02 
       8.000000e-01      -7.180682e-02      -7.180741e-02 
       7.999999e-01       7.180725e-02      -7.180741e-02 
       8.000000e-01       7.180725e-02       7.180666e-02 
       8.000001e-01      -7.180682e-02       7.180666e-02 
       1.000000e+00      -7.180670e-02      -7.180762e-02 
       9.999999e-01       7.180737e-02      -7.180762e-02 
       1.000000e+00       7.180737e-02       7.180645e-02 
       1.000000e+00      -7.180670e-02       7.180645e-02 
       1.000000e+00      -7.180670e-02      -7.180762e-02 
       9.999999e-01       7.180737e-02      -7.180762e-02 
       1.000000e+00       7.180737e-02       7.180645e-02 
       1.000000e+00      -7.180670e-02       7.180645e-02 
       1.200000e+00      -7.180655e-02      -7.180787e-02 
       1.200000e+00       7.180751e-02      -7.180787e-02 
       1.200000e+00       7.180752e-02       7.180620e-02 
       1.200000e+00      -7.180655e-02       7.180620e-02 
       1.200000e+00      -7.180655e-02      -7.180787e-02 
       1.200000e+00       7.180751e-02      -7.180787e-02 
       1.200000e+00       7.180752e-02       7.180620e-02 
       1.200000e+00      -7.180655e-02       7.180620e-02 
       1.400000e+00      -7.180638e-02      -7.180816e-02 
       1.400000e+00       7.180768e-02      -7.180816e-02 
       1.400000e+00       7.180769e-02       7.180590e-02 
       1.400000e+00      -7.180638e-02       7.180591e-02 
       1.400000e+00      -7.180638e-02      -7.180816e-02 
       1.400000e+00       7.180768e-02      -7.180816e-02 
       1.400000e+00       7.180769e-02       7.180590e-02 
       1.400000e+00      -7.180638e-02       7.180591e-02 
       1.600000e+00      -7.180619e-02      -7.180850e-02 
       1.600000e+00       7.180788e-02      -7.180850e-02 
       1.600000e+00       7.180788e-02       7.180557e-02 
       1.600000e+00      -7.180619e-02       7.180557e-02 
       1.600000e+00      -7.180619e-02      -7.180850e-02 
       1.600000e+00       7.180788e-02      -7.180850e-02 
       1.600000e+00       7.180788e-02       7.180557e-02 
       1.600000e+00      -7.180619e-02       7.180557e-02 
       1.800000e+00      -7.180597e-02      -7.180887e-02 
       1.800000e+00       7.180810e-02      -7.180887e-02 
       1.800000e+00       7.180810e-02       7.180519e-02 
       1.800000e+00      -7.180597e-02       7.180519e-02 
       1.800000e+00      -7.180597e-02      -7.180887e-02 
       1.800000e+00       7.180810e-02      -7.180887e-02 
       1.800000e+00       7.180810e-02       7.180519e-02 
       1.800000e+00      -7.180597e-02       7.180519e-02 
       2.000000e+00      -7.180573e-02      -7.180929e-02 
       2.000000e+00       7.180834e-02      -7.180929e-02 
       2.000000e+00       7.180834e-02       7.180478e-02 
       2.000000e+00      -7.180573e-02       7.180478e-02 
       2.000000e+00      -7.180573e-02      -7.180929e-02 
       2.000000e+00       7.180834e-02      -7.180929e-02 
       2.000000e+00       7.180834e-02       7.180478e-02 
       2.000000e+00      -7.180573e-02       7.180478e-02 
       2.200000e+00      -7.180547e-02      -7.180974e-02 
       2.200000e+00       7.180860e-02      -7.180974e-02 
       2.200000e+00       7.180860e-02       7.180432e-02 
       2.200000e+00      -7.180547e-02       7.180433e-02 
       2.200000e+00      -7.180547e-02      -7.180974e-02 
       2.200000e+00       7.180860e-02      -7.180974e-02 
       2.200000e+00       7.180860e-02       7.180432e-02 
       2.200000e+00      -7.180547e-02       7.180433e-02 
       2.400000e+00      -7.180518e-02      -7.181023e-02 
       2.400000e+00       7.180888e-02      -7.181023e-02 
       2.400000e+00       7.180889e-02       7.180383e-02 
       2.400000e+00      -7.180518e-02       7.180383e-02 
       2.400000e+00      -7.180518e-02      -7.181023e-02 
       2.400000e+00       7.180888e-02      -7.181023e-02 
       2.400000e+00       7.180889e-02       7.180383e-02 
       2.400000e+00      -7.180518e-02       7.180383e-02 
       2.600000e+00      -7.180488e-02      -7.181076e-02 
       2.600000e+00       7.180919e-02      -7.181076e-02 
       2.600000e+00       7.180919e-02       7.180330e-02 
       2.600000e+00      -7.180487e-02       7.180331e-02 
       2.600000e+00      -7.180488e-02      -7.181076e-02 
       2.600000e+00       7.180919e-02      -7.181076e-02 
       2.600000e+00       7.180919e-02       7.180330e-02 
       2.600000e+00      -7.180487e-02       7.180331e-02 
       2.800000e+00      -7.180455e-02      -7.181132e-02 
       2.800000e+00       7.180952e-02      -7.181133e-02 
       2.800000e+00       7.180952e-02       7.180274e-02 
       2.800000e+00      -7.180455e-02       7.180274e-02 
       2.800000e+00      -7.180455e-02      -7.181132e-02 
       2.800000e+00       7.180952e-02      -7.181133e-02 
       2.800000e+00       7.180952e-02       7.180274e-02 
       2.800000e+00      -7.180455e-02       7.180274e-02 
       3.000000e+00      -7.180420e-02      -7.181192e-02 
       3.000000e+00       7.180987e-02      -7.181193e-02 
       3.000000e+00       7.180987e-02       7.180214e-02 
       3.000000e+00      -7.180420e-02       7.180214e-02 
       3.000000e+00      -7.180420e-02      -7.181192e-02 
       3.000000e+00       7.180987e-02      -7.181193e-02 
       3.000000e+00       7.180987e-02       7.180214e-02 
       3.000000e+00      -7.180420e-02       7.180214e-02 
       3.200000e+00      -7.180383e-02      -7.181256e-02 
       3.200000e+00       7.181024e-02      -7.181256e-02 
       3.200000e+00       7.181024e-02       7.180151e-02 
       3.200000e+00      -7.180383e-02       7.180151e-02 
       3.200000e+00      -7.180383e-02      -7.181256e-02 
       3.200000e+00       7.181024e-02      -7.181256e-02 
       3.200000e+00       7.181024e-02       7.180151e-02 
       3.200000e+00      -7.180383e-02       7.180151e-02 
       3.400000e+00      -7.180344e-02      -7.181323e-02 
       3.400000e+00       7.181062e-02      -7.181323e-02 
       3.400000e+00       7.181063e-02       7.180084e-02 
       3.400000e+00      -7.180344e-02       7.180084e-02 
       3.400000e+00      -7.180344e-02      -7.181323e-02 
       3.400000e+00       7.181062e-02      -7.181323e-02 
       3.400000e+00       7.181063e-02       7.180084e-02 
       3.400000e+00      -7.180344e-02       7.180084e-02 
       3.600000e+00      -7.180304e-02      -7.181393e-02 
       3.600000e+00       7.181103e-02      -7.181393e-02 
       3.600000e+00       7.181103e-02       7.180014e-02 
       3.600000e+00      -7.180303e-02       7.180014e-02 
       3.600000e+00      -7.180304e-02      -7.181393e-02 
       3.600000e+00       7.181103e-02      -7.181393e-02 
       3.600000e+00       7.181103e-02       7.180014e-02 
       3.600000e+00      -7.180303e-02       7.180014e-02 
       3.800000e+00      -7.180261e-02      -7.181466e-02 
       3.800000e+00       7.181146e-02      -7.181466e-02 
       3.800000e+00       7.181146e-02       7.179941e-02 
       3.800000e+00      -7.180261e-02       7.179941e-02 
       3.800000e+00      -7.180261e-02      -7.181466e-02 
       3.800000e+00       7.181146e-02      -7.181466e-02 
       3.800000e+00       7.181146e-02       7.179941e-02 
       3.800000e+00      -7.180261e-02       7.179941e-02 
       4.000000e+00      -7.180216e-02      -7.181542e-02 
       4.000000e+00       7.181190e-02      -7.181542e-02 
       4.000000e+00       7.181190e-02       7.179864e-02 
       4.000000e+00      -7.180216e-02       7.179865e-02 
       4.000000e+00      -7.180216e-02      -7.181542e-02 
       4.000000e+00       7.181190e-02      -7.181542e-02 
       4.000000e+00       7.181190e-02       7.179864e-02 
       4.000000e+00      -7.180216e-02       7.179865e-02 
       4.200000e+00      -7.180170e-02      -7.181621e-02 
[...]
POINT_DATA       800 
VECTORS Displacements float
      -6.43648919e-25      -1.38777878e-17      -1.38777878e-17 
       1.26500856e-23       1.38777878e-17       0.00000000e+00 
       6.43648919e-25       1.38777878e-17       1.38777878e-17 
      -1.26500856e-23      -1.38777878e-17       0.00000000e+00 
      -7.31498545e-09       1.37486299e-08      -2.39192921e-08 
      -2.71069553e-08       1.37486286e-08      -2.40727810e-08 
       7.23865887e-09       1.39021223e-08      -2.40727851e-08 
       2.70306287e-08       1.39021236e-08      -2.39192962e-08 
      -7.31498545e-09       1.37486299e-08      -2.39192921e-08 
      -2.71069553e-08       1.37486286e-08      -2.40727810e-08 
       7.23865887e-09       1.39021223e-08      -2.40727851e-08 
       2.70306287e-08       1.39021236e-08      -2.39192962e-08 
      -1.44714659e-08       5.47958758e-08      -9.51840776e-08 
      -5.36761200e-08       5.47958705e-08      -9.54910509e-08 
       1.43186704e-08       5.51028623e-08      -9.54910670e-08 
       5.35233246e-08       5.51028676e-08      -9.51840937e-08 
      -1.44714659e-08       5.47958758e-08      -9.51840776e-08 
      -5.36761200e-08       5.47958705e-08      -9.54910509e-08 
       1.43186704e-08       5.51028623e-08      -9.54910670e-08 
       5.35233246e-08       5.51028676e-08      -9.51840937e-08 
      -2.14694398e-08       1.22613536e-07      -2.12824482e-07 
      -7.97074926e-08       1.22613525e-07      -2.13284936e-07 
       2.12400362e-08       1.23074019e-07      -2.13284971e-07 
       7.94780890e-08       1.23074031e-07      -2.12824518e-07 
      -2.14694398e-08       1.22613536e-07      -2.12824482e-07 
      -7.97074926e-08       1.22613525e-07      -2.13284936e-07 
       2.12400362e-08       1.23074019e-07      -2.13284971e-07 
       7.94780890e-08       1.23074031e-07      -2.12824518e-07 
      -2.83089060e-08       2.16673411e-07      -3.75870633e-07 
      -1.05201072e-07       2.16673390e-07      -3.76484562e-07 
       2.80027573e-08       2.17287391e-07      -3.76484624e-07 
       1.04894923e-07       2.17287411e-07      -3.75870694e-07 
      -2.83089060e-08       2.16673411e-07      -3.75870633e-07 
      -1.05201072e-07       2.16673390e-07      -3.76484562e-07 
       2.80027573e-08       2.17287391e-07      -3.76484624e-07 
       1.04894923e-07       2.17287411e-07      -3.75870694e-07 
      -3.49898627e-08       3.36447297e-07      -5.83352654e-07 
      -1.30156856e-07       3.36447266e-07      -5.84120056e-07 
       3.46068356e-08       3.37214777e-07      -5.84120150e-07 
       1.29773829e-07       3.37214808e-07      -5.83352748e-07 
      -3.49898627e-08       3.36447297e-07      -5.83352654e-07 
      -1.30156856e-07       3.36447266e-07      -5.84120056e-07 
       3.46068356e-08       3.37214777e-07      -5.84120150e-07 
       1.29773829e-07       3.37214808e-07      -5.83352748e-07 
      -4.15123085e-08       4.81406995e-07      -8.34300672e-07 
      -1.54574844e-07       4.81406951e-07      -8.35221543e-07 
       4.10522725e-08       4.82327975e-07      -8.35221676e-07 
       1.54114808e-07       4.82328020e-07      -8.34300805e-07 
      -4.15123085e-08       4.81406995e-07      -8.34300672e-07 
      -1.54574844e-07       4.81406951e-07      -8.35221543e-07 
       4.10522725e-08       4.82327975e-07      -8.35221676e-07 
       1.54114808e-07       4.82328020e-07      -8.34300805e-07 
      -4.78762421e-08       6.51024303e-07      -1.12774481e-06 
      -1.78455034e-07       6.51024244e-07      -1.12881915e-06 
       4.73390691e-08       6.52098785e-07      -1.12881933e-06 
       1.77917861e-07       6.52098845e-07      -1.12774499e-06 
      -4.78762421e-08       6.51024303e-07      -1.12774481e-06 
      -1.78455034e-07       6.51024244e-07      -1.12881915e-06 
       4.73390691e-08       6.52098785e-07      -1.12881933e-06 
       1.77917861e-07       6.52098845e-07      -1.12774499e-06 
      -5.40816631e-08       8.44771020e-07      -1.46271520e-06 
      -2.01797425e-07       8.44770944e-07      -1.46394300e-06 
       5.34672266e-08       8.45999006e-07      -1.46394323e-06 
       2.01182989e-07       8.45999082e-07      -1.46271543e-06 
      -5.40816631e-08       8.44771020e-07      -1.46271520e-06 
      -2.01797425e-07       8.44770944e-07      -1.46394300e-06 
       5.34672266e-08       8.45999006e-07      -1.46394323e-06 
       2.01182989e-07       8.45999082e-07      -1.46271543e-06 
      -6.01285677e-08       1.06211894e-06      -1.83824197e-06 
      -2.24602015e-07       1.06211885e-06      -1.83962323e-06 
       5.94367473e-08       1.06350043e-06      -1.83962351e-06 
       2.23910195e-07       1.06350053e-06      -1.83824225e-06 
      -6.01285677e-08       1.06211894e-06      -1.83824197e-06 
      -2.24602015e-07       1.06211885e-06      -1.83962323e-06 
       5.94367473e-08       1.06350043e-06      -1.83962351e-06 
       2.23910195e-07       1.06350053e-06      -1.83824225e-06 
      -6.60169563e-08       1.30253988e-06      -2.25335523e-06 
      -2.46868803e-07       1.30253976e-06      -2.25488995e-06 
       6.52476322e-08       1.30407487e-06      -2.25489029e-06 
       2.46099479e-07       1.30407499e-06      -2.25335557e-06 
      -6.60169563e-08       1.30253988e-06      -2.25335523e-06 
      -2.46868803e-07       1.30253976e-06      -2.25488995e-06 
       6.52476322e-08       1.30407487e-06      -2.25489029e-06 
       2.46099479e-07       1.30407499e-06      -2.25335557e-06 
      -7.17419653e-08       1.56552263e-06      -2.70711064e-06 
      -2.68612397e-07       1.56552249e-06      -2.70878277e-06 
       7.09234067e-08       1.56719508e-06      -2.70878317e-06 
       2.67793839e-07       1.56719522e-06      -2.70711105e-06 
      -7.17419653e-08       1.56552263e-06      -2.70711064e-06 
      -2.68612397e-07       1.56552249e-06      -2.70878277e-06 
       7.09234067e-08       1.56719508e-06      -2.70878317e-06 
       2.67793839e-07       1.56719522e-06      -2.70711105e-06 
      -7.73278948e-08       1.85057650e-06      -3.19862025e-06 
      -2.89876983e-07       1.85057635e-06      -3.20042978e-06 
       7.64597927e-08       1.85238641e-06      -3.20043025e-06 
       2.89008881e-07       1.85238657e-06      -3.19862072e-06 
      -7.73278948e-08       1.85057650e-06      -3.19862025e-06 
      -2.89876983e-07       1.85057635e-06      -3.20042978e-06 
       7.64597927e-08       1.85238641e-06      -3.20043025e-06 
       2.89008881e-07       1.85238657e-06      -3.19862072e-06 
      -8.27747422e-08       2.15722811e-06      -3.72702287e-06 
      -3.10662558e-07       2.15722793e-06      -3.72896980e-06 
       8.18567929e-08       2.15917548e-06      -3.72897034e-06 
       3.09744609e-07       2.15917566e-06      -3.72702341e-06 
      -8.27747422e-08       2.15722811e-06      -3.72702287e-06 
      -3.10662558e-07       2.15722793e-06      -3.72896980e-06 
       8.18567929e-08       2.15917548e-06      -3.72897034e-06 
       3.09744609e-07       2.15917566e-06      -3.72702341e-06 
      -8.80825040e-08       2.48500406e-06      -4.29145731e-06 
      -3.30969120e-07       2.48500386e-06      -4.29354163e-06 
       8.71144117e-08       2.48708889e-06      -4.29354224e-06 
       3.30001027e-07       2.48708910e-06      -4.29145791e-06 
      -8.80825040e-08       2.48500406e-06      -4.29145731e-06 
      -3.30969120e-07       2.48500386e-06      -4.29354163e-06 
       8.71144117e-08       2.48708889e-06      -4.29354224e-06 
       3.30001027e-07       2.48708910e-06      -4.29145791e-06 
      -9.32511770e-08       2.83343096e-06      -4.89106236e-06 
      -3.50796663e-07       2.83343073e-06      -4.89328409e-06 
       9.22326513e-08       2.83565325e-06      -4.89328477e-06 
       3.49778138e-07       2.83565348e-06      -4.89106305e-06 
      -9.32511770e-08       2.83343096e-06      -4.89106236e-06 
      -3.50796663e-07       2.83343073e-06      -4.89328409e-06 
       9.22326513e-08       2.83565325e-06      -4.89328477e-06 
       3.49778138e-07       2.83565348e-06      -4.89106305e-06 
      -9.82807578e-08       3.20203542e-06      -5.52497685e-06 
      -3.70145186e-07       3.20203516e-06      -5.52733598e-06 
       9.72115153e-08       3.20439517e-06      -5.52733674e-06 
       3.69075944e-07       3.20439543e-06      -5.52497761e-06 
      -9.82807578e-08       3.20203542e-06      -5.52497685e-06 
      -3.70145186e-07       3.20203516e-06      -5.52733598e-06 
       9.72115153e-08       3.20439517e-06      -5.52733674e-06 
       3.69075944e-07       3.20439543e-06      -5.52497761e-06 
      -1.03171242e-07       3.59034404e-06      -6.19233958e-06 
      -3.89014684e-07       3.59034375e-06      -6.19483610e-06 
       1.02051009e-07       3.59284125e-06      -6.19483694e-06 
       3.87894451e-07       3.59284154e-06      -6.19234042e-06 
      -1.03171242e-07       3.59034404e-06      -6.19233958e-06 
      -3.89014684e-07       3.59034375e-06      -6.19483610e-06 
       1.02051009e-07       3.59284125e-06      -6.19483694e-06 
       3.87894451e-07       3.59284154e-06      -6.19234042e-06 
      -1.07922626e-07       3.99788343e-06      -6.89228936e-06 
      -4.07405153e-07       3.99788312e-06      -6.89492328e-06 
       1.06751134e-07       4.00051811e-06      -6.89492420e-06 
       4.06233661e-07       4.00051842e-06      -6.89229028e-06 
      -1.07922626e-07       3.99788343e-06      -6.89228936e-06 
      -4.07405153e-07       3.99788312e-06      -6.89492328e-06 
       1.06751134e-07       4.00051811e-06      -6.89492420e-06 
       4.06233661e-07       4.00051842e-06      -6.89229028e-06 
      -1.12534908e-07       4.42418021e-06      -7.62396500e-06 
      -4.25316591e-07       4.42417987e-06      -7.62673631e-06 
       1.11311896e-07       4.42695235e-06      -7.62673731e-06 
       4.24093578e-07       4.42695269e-06      -7.62396600e-06 
      -1.12534908e-07       4.42418021e-06      -7.62396500e-06 
      -4.25316591e-07       4.42417987e-06      -7.62673631e-06 
       1.11311896e-07       4.42695235e-06      -7.62673731e-06 
       4.24093578e-07       4.42695269e-06      -7.62396600e-06 
      -1.17008082e-07       4.86876098e-06      -8.38650530e-06 
      -4.42748994e-07       4.86876061e-06      -8.38941401e-06 
       1.15733295e-07       4.87167058e-06      -8.38941509e-06 
       4.41474206e-07       4.87167095e-06      -8.38650639e-06 
      -1.17008083e-07       4.86876098e-06      -8.38650530e-06 
      -4.42748994e-07       4.86876061e-06      -8.38941401e-06 
       1.15733294e-07       4.87167058e-06      -8.38941509e-06 
       4.41474206e-07       4.87167095e-06      -8.38650639e-06 
      -1.21341933e-07       5.33116948e-06      -9.17907519e-06 
      -4.59721799e-07       5.33116908e-06      -9.18210520e-06 
       1.20035010e-07       5.33420046e-06      -9.18210637e-06 
       4.58414877e-07       5.33420086e-06      -9.17907636e-06 
      -1.21341933e-07       5.33116948e-06      -9.17907519e-06 
      -4.59721799e-07       5.33116908e-06      -9.18210520e-06 
       1.20035010e-07       5.33420046e-06      -9.18210637e-06 
       4.58414877e-07       5.33420086e-06      -9.17907636e-06 
      -1.25556412e-07       5.81097016e-06      -1.00008968e-05 
      -4.76274936e-07       5.81096973e-06      -1.00040482e-05 
       1.24216994e-07       5.81412251e-06      -1.00040494e-05 
       4.74935518e-07       5.81412294e-06      -1.00008981e-05 
      -1.25556412e-07       5.81097016e-06      -1.00008968e-05 
      -4.76274936e-07       5.81096973e-06      -1.00040482e-05 
       1.24216994e-07       5.81412251e-06      -1.00040494e-05 
       4.74935518e-07       5.81412294e-06      -1.00008981e-05 
      -1.29651515e-07       6.30774481e-06      -1.08512191e-05 
      -4.92408399e-07       6.30774435e-06      -1.08544917e-05 
       1.28279252e-07       6.31101853e-06      -1.08544930e-05 
       4.91036135e-07       6.31101899e-06      -1.08512204e-05 
      -1.29651515e-07       6.30774481e-06      -1.08512191e-05 
      -4.92408399e-07       6.30774435e-06      -1.08544917e-05 
       1.28279252e-07       6.31101853e-06      -1.08544930e-05 
       4.91036135e-07       6.31101899e-06      -1.08512204e-05 
      -1.33627239e-07       6.82107523e-06      -1.17292907e-05 
      -5.08122184e-07       6.82107474e-06      -1.17326846e-05 
       1.32221786e-07       6.82447033e-06      -1.17326860e-05 
       5.06716731e-07       6.82447082e-06      -1.17292921e-05 
      -1.33627239e-07       6.82107523e-06      -1.17292907e-05 
      -5.08122184e-07       6.82107474e-06      -1.17326846e-05 
       1.32221786e-07       6.82447033e-06      -1.17326860e-05 
       5.06716731e-07       6.82447082e-06      -1.17292921e-05 
      -1.37483578e-07       7.35054323e-06      -1.26343606e-05 
      -5.23416287e-07       7.35054271e-06      -1.26378758e-05 
       1.36044601e-07       7.35405970e-06      -1.26378773e-05 
       5.21977311e-07       7.35406022e-06      -1.26343621e-05 
      -1.37483578e-07       7.35054323e-06      -1.26343606e-05 
      -5.23416287e-07       7.35054271e-06      -1.26378758e-05 
       1.36044601e-07       7.35405970e-06      -1.26378773e-05 
       5.21977311e-07       7.35406022e-06      -1.26343621e-05 
      -1.41220528e-07       7.89573059e-06      -1.35656774e-05 
      -5.38290704e-07       7.89573004e-06      -1.35693140e-05 
       1.39747703e-07       7.89936844e-06      -1.35693156e-05 
       5.36817879e-07       7.89936899e-06      -1.35656790e-05 
      -1.41220528e-07       7.89573059e-06      -1.35656774e-05 
      -5.38290704e-07       7.89573004e-06      -1.35693140e-05 
       1.39747703e-07       7.89936844e-06      -1.35693156e-05 
       5.36817879e-07       7.89936899e-06      -1.35656790e-05 
      -1.44838085e-07       8.45621913e-06      -1.45224902e-05 
      -5.52745428e-07       8.45621855e-06      -1.45262480e-05 
       1.43331096e-07       8.45997835e-06      -1.45262497e-05 
       5.51238441e-07       8.45997893e-06      -1.45224919e-05 
      -1.44838085e-07       8.45621913e-06      -1.45224902e-05 
      -5.52745428e-07       8.45621855e-06      -1.45262480e-05 
       1.43331096e-07       8.45997835e-06      -1.45262497e-05 
       5.51238441e-07       8.45997893e-06      -1.45224919e-05 
      -1.48336241e-07       9.03159064e-06      -1.55040476e-05 
      -5.66780455e-07       9.03159003e-06      -1.55079267e-05 
       1.46794786e-07       9.03547123e-06      -1.55079285e-05 
       5.65239001e-07       9.03547184e-06      -1.55040494e-05 
      -1.48336241e-07       9.03159064e-06      -1.55040476e-05 
      -5.66780455e-07       9.03159003e-06      -1.55079267e-05 
       1.46794786e-07       9.03547123e-06      -1.55079285e-05 
       5.65239001e-07       9.03547184e-06      -1.55040494e-05 
      -1.51714996e-07       9.62142691e-06      -1.65095985e-05 
      -5.80395784e-07       9.62142627e-06      -1.65135989e-05 
       1.50138775e-07       9.62542888e-06      -1.65136008e-05 
       5.78819563e-07       9.62542952e-06      -1.65096004e-05 
      -1.51714996e-07       9.62142691e-06      -1.65095985e-05 
      -5.80395784e-07       9.62142627e-06      -1.65135989e-05 
       1.50138775e-07       9.62542888e-06      -1.65136008e-05 
       5.78819563e-07       9.62542952e-06      -1.65096004e-05 
      -1.54974344e-07       1.02253098e-05      -1.75383918e-05 
      -5.93591407e-07       1.02253091e-05      -1.75425135e-05 
       1.53363068e-07       1.02294331e-05      -1.75425154e-05 
       5.91980132e-07       1.02294338e-05      -1.75383937e-05 
      -1.54974344e-07       1.02253098e-05      -1.75383918e-05 
      -5.93591406e-07       1.02253091e-05      -1.75425135e-05 
       1.53363069e-07       1.02294331e-05      -1.75425154e-05 
       5.91980132e-07       1.02294338e-05      -1.75383937e-05 
      -1.58117592e-07       1.08428382e-05      -1.85897026e-05 
      -6.06390434e-07       1.08428375e-05      -1.85939295e-05 
       1.56484259e-07       1.08470668e-05      -1.85939316e-05 
       6.04757101e-07       1.08470675e-05      -1.85897047e-05 
      -1.58117592e-07       1.08428382e-05      -1.85897026e-05 
      -6.06390434e-07       1.08428375e-05      -1.85939295e-05 
       1.56484259e-07       1.08470668e-05      -1.85939316e-05 
       6.04757101e-07       1.08470675e-05      -1.85897047e-05 
      -1.61161143e-07       1.14736321e-05      -1.96628639e-05 
      -6.18829303e-07       1.14736314e-05      -1.96671960e-05 
       1.59505414e-07       1.14779659e-05      -1.96671981e-05 
       6.17173574e-07       1.14779667e-05      -1.96628660e-05 
      -1.61161143e-07       1.14736321e-05      -1.96628639e-05 
      -6.18829303e-07       1.14736314e-05      -1.96671960e-05 
       1.59505414e-07       1.14779659e-05      -1.96671981e-05 
       6.17173574e-07       1.14779667e-05      -1.96628660e-05 
      -1.64104992e-07       1.21173288e-05      -2.07572347e-05 
      -6.30908009e-07       1.21173280e-05      -2.07616720e-05 
       1.62426539e-07       1.21217679e-05      -2.07616742e-05 
       6.29229556e-07       1.21217686e-05      -2.07572369e-05 
      -1.64104992e-07       1.21173288e-05      -2.07572347e-05 
      -6.30908009e-07       1.21173280e-05      -2.07616720e-05 
       1.62426539e-07       1.21217679e-05      -2.07616742e-05 
       6.29229556e-07       1.21217686e-05      -2.07572369e-05 
      -1.66949134e-07       1.27735655e-05      -2.18721742e-05 
      -6.42626547e-07       1.27735647e-05      -2.18767166e-05 
       1.65247636e-07       1.27781098e-05      -2.18767189e-05 
       6.40925049e-07       1.27781106e-05      -2.18721764e-05 
      -1.66949134e-07       1.27735655e-05      -2.18721742e-05 
      -6.42626547e-07       1.27735647e-05      -2.18767166e-05 
       1.65247636e-07       1.27781098e-05      -2.18767189e-05 
       6.40925049e-07       1.27781106e-05      -2.18721764e-05 
      -1.69693564e-07       1.34419795e-05      -2.30070414e-05 
      -6.53984912e-07       1.34419787e-05      -2.30116890e-05 
       1.67968712e-07       1.34466291e-05      -2.30116914e-05 
       6.52260059e-07       1.34466299e-05      -2.30070437e-05 
      -1.69693564e-07       1.34419795e-05      -2.30070414e-05 
      -6.53984912e-07       1.34419787e-05      -2.30116890e-05 
       1.67968712e-07       1.34466291e-05      -2.30116914e-05 
       6.52260059e-07       1.34466299e-05      -2.30070437e-05 
      -1.72338278e-07       1.41222081e-05      -2.41611955e-05 
      -6.64983100e-07       1.41222072e-05      -2.41659483e-05 
       1.70589771e-07       1.41269629e-05      -2.41659507e-05 
       6.63234593e-07       1.41269638e-05      -2.41611979e-05 
      -1.72338278e-07       1.41222081e-05      -2.41611955e-05 
      -6.64983100e-07       1.41222072e-05      -2.41659483e-05 
       1.70589771e-07       1.41269629e-05      -2.41659507e-05 
       6.63234593e-07       1.41269638e-05      -2.41611979e-05 
      -1.74883269e-07       1.48138885e-05      -2.53339956e-05 
      -6.75621105e-07       1.48138877e-05      -2.53388536e-05 
       1.73110818e-07       1.48187486e-05      -2.53388561e-05 
       6.73848653e-07       1.48187495e-05      -2.53339981e-05 
      -1.74883269e-07       1.48138885e-05      -2.53339956e-05 
      -6.75621105e-07       1.48138877e-05      -2.53388536e-05 
       1.73110818e-07       1.48187486e-05      -2.53388561e-05 
       6.73848653e-07       1.48187495e-05      -2.53339981e-05 
      -1.77328533e-07       1.55166581e-05      -2.65248009e-05 
      -6.85898922e-07       1.55166572e-05      -2.65297641e-05 
       1.75531859e-07       1.55216235e-05      -2.65297666e-05 
       6.84102249e-07       1.55216244e-05      -2.65248034e-05 
      -1.77328533e-07       1.55166581e-05      -2.65248009e-05 
      -6.85898922e-07       1.55166572e-05      -2.65297641e-05 