# vtk DataFile Version 2.0
./output/onsasExample_BladeCantileverBeamPitch_windVel3DDynamic 3D/onsasExample_BladeCantileverBeamPitch_windVel3DDynamic 3D_0002.vtk
ASCII
DATASET UNSTRUCTURED_GRID

POINTS 800 float
       2.175190e-25      -7.180703e-02      -7.180703e-02 
       2.789294e-23       7.180703e-02      -7.180703e-02 
      -2.175190e-25       7.180703e-02       7.180703e-02 
      -2.789294e-23      -7.180703e-02       7.180703e-02 
       2.000000e-01      -7.180702e-02      -7.180706e-02 
       2.000000e-01       7.180705e-02      -7.180706e-02 
       2.000000e-01       7.180705e-02       7.180701e-02 
       2.000000e-01      -7.180702e-02       7.180701e-02 
       2.000000e-01      -7.180702e-02      -7.180706e-02 
       2.000000e-01       7.180705e-02      -7.180706e-02 
       2.000000e-01       7.180705e-02       7.180701e-02 
       2.000000e-01      -7.180702e-02       7.180701e-02 
       4.000000e-01      -7.180698e-02      -7.180714e-02 
       3.999999e-01       7.180709e-02      -7.180714e-02 
       4.000000e-01       7.180709e-02       7.180693e-02 
       4.000001e-01      -7.180698e-02       7.180693e-02 
       4.000000e-01      -7.180698e-02      -7.180714e-02 
       3.999999e-01       7.180709e-02      -7.180714e-02 
       4.000000e-01       7.180709e-02       7.180693e-02 
       4.000001e-01      -7.180698e-02       7.180693e-02 
       6.000000e-01      -7.180691e-02      -7.180727e-02 
       5.999999e-01       7.180716e-02      -7.180727e-02 
       6.000000e-01       7.180716e-02       7.180680e-02 
       6.000001e-01      -7.180691e-02       7.180680e-02 
       6.000000e-01      -7.180691e-02      -7.180727e-02 
       5.999999e-01       7.180716e-02      -7.180727e-02 
       6.000000e-01       7.180716e-02       7.180680e-02 
       6.000001e-01      -7.180691e-02       7.180680e-02 
       8.000000e-01      -7.180682e-02      -7.180745e-02 
       7.999999e-01       7.180725e-02      -7.180745e-02 
       8.000000e-01       7.180725e-02       7.180662e-02 
       8.000001e-01      -7.180682e-02       7.180662e-02 
       8.000000e-01      -7.180682e-02      -7.180745e-02 
       7.999999e-01       7.180725e-02      -7.180745e-02 
       8.000000e-01       7.180725e-02       7.180662e-02 
       8.000001e-01      -7.180682e-02       7.180662e-02 
       1.000000e+00      -7.180670e-02      -7.180767e-02 
       9.999999e-01       7.180737e-02      -7.180767e-02 
       1.000000e+00       7.180737e-02       7.180639e-02 
       1.000000e+00      -7.180670e-02       7.180639e-02 
       1.000000e+00      -7.180670e-02      -7.180767e-02 
       9.999999e-01       7.180737e-02      -7.180767e-02 
       1.000000e+00       7.180737e-02       7.180639e-02 
       1.000000e+00      -7.180670e-02       7.180639e-02 
       1.200000e+00      -7.180655e-02      -7.180795e-02 
       1.200000e+00       7.180751e-02      -7.180795e-02 
       1.200000e+00       7.180751e-02       7.180612e-02 
       1.200000e+00      -7.180655e-02       7.180612e-02 
       1.200000e+00      -7.180655e-02      -7.180795e-02 
       1.200000e+00       7.180751e-02      -7.180795e-02 
       1.200000e+00       7.180751e-02       7.180612e-02 
       1.200000e+00      -7.180655e-02       7.180612e-02 
       1.400000e+00      -7.180638e-02      -7.180827e-02 
       1.400000e+00       7.180768e-02      -7.180827e-02 
       1.400000e+00       7.180768e-02       7.180579e-02 
       1.400000e+00      -7.180638e-02       7.180580e-02 
       1.400000e+00      -7.180638e-02      -7.180827e-02 
       1.400000e+00       7.180768e-02      -7.180827e-02 
       1.400000e+00       7.180768e-02       7.180579e-02 
       1.400000e+00      -7.180638e-02       7.180580e-02 
       1.600000e+00      -7.180619e-02      -7.180864e-02 
       1.600000e+00       7.180787e-02      -7.180864e-02 
       1.600000e+00       7.180788e-02       7.180543e-02 
       1.600000e+00      -7.180619e-02       7.180543e-02 
       1.600000e+00      -7.180619e-02      -7.180864e-02 
       1.600000e+00       7.180787e-02      -7.180864e-02 
       1.600000e+00       7.180788e-02       7.180543e-02 
       1.600000e+00      -7.180619e-02       7.180543e-02 
       1.800000e+00      -7.180598e-02      -7.180905e-02 
       1.800000e+00       7.180809e-02      -7.180905e-02 
       1.800000e+00       7.180809e-02       7.180501e-02 
       1.800000e+00      -7.180597e-02       7.180501e-02 
       1.800000e+00      -7.180598e-02      -7.180905e-02 
       1.800000e+00       7.180809e-02      -7.180905e-02 
       1.800000e+00       7.180809e-02       7.180501e-02 
       1.800000e+00      -7.180597e-02       7.180501e-02 
       2.000000e+00      -7.180574e-02      -7.180951e-02 
       2.000000e+00       7.180833e-02      -7.180951e-02 
       2.000000e+00       7.180833e-02       7.180456e-02 
       2.000000e+00      -7.180573e-02       7.180456e-02 
       2.000000e+00      -7.180574e-02      -7.180951e-02 
       2.000000e+00       7.180833e-02      -7.180951e-02 
       2.000000e+00       7.180833e-02       7.180456e-02 
       2.000000e+00      -7.180573e-02       7.180456e-02 
       2.200000e+00      -7.180547e-02      -7.181001e-02 
       2.200000e+00       7.180859e-02      -7.181001e-02 
       2.200000e+00       7.180859e-02       7.180406e-02 
       2.200000e+00      -7.180547e-02       7.180406e-02 
       2.200000e+00      -7.180547e-02      -7.181001e-02 
       2.200000e+00       7.180859e-02      -7.181001e-02 
       2.200000e+00       7.180859e-02       7.180406e-02 
       2.200000e+00      -7.180547e-02       7.180406e-02 
       2.400000e+00      -7.180519e-02      -7.181055e-02 
       2.400000e+00       7.180888e-02      -7.181055e-02 
       2.400000e+00       7.180888e-02       7.180352e-02 
       2.400000e+00      -7.180519e-02       7.180352e-02 
       2.400000e+00      -7.180519e-02      -7.181055e-02 
       2.400000e+00       7.180888e-02      -7.181055e-02 
       2.400000e+00       7.180888e-02       7.180352e-02 
       2.400000e+00      -7.180519e-02       7.180352e-02 
       2.600000e+00      -7.180489e-02      -7.181113e-02 
       2.600000e+00       7.180918e-02      -7.181113e-02 
       2.600000e+00       7.180918e-02       7.180293e-02 
       2.600000e+00      -7.180488e-02       7.180293e-02 
       2.600000e+00      -7.180489e-02      -7.181113e-02 
       2.600000e+00       7.180918e-02      -7.181113e-02 
       2.600000e+00       7.180918e-02       7.180293e-02 
       2.600000e+00      -7.180488e-02       7.180293e-02 
       2.800000e+00      -7.180456e-02      -7.181175e-02 
       2.800000e+00       7.180951e-02      -7.181176e-02 
       2.800000e+00       7.180951e-02       7.180231e-02 
       2.800000e+00      -7.180456e-02       7.180231e-02 
       2.800000e+00      -7.180456e-02      -7.181175e-02 
       2.800000e+00       7.180951e-02      -7.181176e-02 
       2.800000e+00       7.180951e-02       7.180231e-02 
       2.800000e+00      -7.180456e-02       7.180231e-02 
       3.000000e+00      -7.180421e-02      -7.181242e-02 
       3.000000e+00       7.180985e-02      -7.181242e-02 
       3.000000e+00       7.180986e-02       7.180165e-02 
       3.000000e+00      -7.180421e-02       7.180165e-02 
       3.000000e+00      -7.180421e-02      -7.181242e-02 
       3.000000e+00       7.180985e-02      -7.181242e-02 
       3.000000e+00       7.180986e-02       7.180165e-02 
       3.000000e+00      -7.180421e-02       7.180165e-02 
       3.200000e+00      -7.180385e-02      -7.181312e-02 
       3.200000e+00       7.181022e-02      -7.181312e-02 
       3.200000e+00       7.181022e-02       7.180095e-02 
       3.200000e+00      -7.180384e-02       7.180095e-02 
       3.200000e+00      -7.180385e-02      -7.181312e-02 
       3.200000e+00       7.181022e-02      -7.181312e-02 
       3.200000e+00       7.181022e-02       7.180095e-02 
       3.200000e+00      -7.180384e-02       7.180095e-02 
       3.400000e+00      -7.180346e-02      -7.181385e-02 
       3.400000e+00       7.181061e-02      -7.181386e-02 
       3.400000e+00       7.181061e-02       7.180021e-02 
       3.400000e+00      -7.180346e-02       7.180021e-02 
       3.400000e+00      -7.180346e-02      -7.181385e-02 
       3.400000e+00       7.181061e-02      -7.181386e-02 
       3.400000e+00       7.181061e-02       7.180021e-02 
       3.400000e+00      -7.180346e-02       7.180021e-02 
       3.600000e+00      -7.180305e-02      -7.181463e-02 
       3.600000e+00       7.181101e-02      -7.181463e-02 
       3.600000e+00       7.181101e-02       7.179944e-02 
       3.600000e+00      -7.180305e-02       7.179944e-02 
       3.600000e+00      -7.180305e-02      -7.181463e-02 
       3.600000e+00       7.181101e-02      -7.181463e-02 
       3.600000e+00       7.181101e-02       7.179944e-02 
       3.600000e+00      -7.180305e-02       7.179944e-02 
       3.800000e+00      -7.180263e-02      -7.181544e-02 
       3.800000e+00       7.181144e-02      -7.181544e-02 
       3.800000e+00       7.181144e-02       7.179863e-02 
       3.800000e+00      -7.180263e-02       7.179863e-02 
       3.800000e+00      -7.180263e-02      -7.181544e-02 
       3.800000e+00       7.181144e-02      -7.181544e-02 
       3.800000e+00       7.181144e-02       7.179863e-02 
       3.800000e+00      -7.180263e-02       7.179863e-02 
       4.000000e+00      -7.180219e-02      -7.181628e-02 
       4.000000e+00       7.181188e-02      -7.181628e-02 
       4.000000e+00       7.181188e-02       7.179778e-02 
       4.000000e+00      -7.180218e-02       7.179779e-02 
       4.000000e+00      -7.180219e-02      -7.181628e-02 
       4.000000e+00       7.181188e-02      -7.181628e-02 
       4.000000e+00       7.181188e-02       7.179778e-02 
       4.000000e+00      -7.180218e-02       7.179779e-02 
       4.200000e+00      -7.180173e-02      -7.181716e-02 
[...]
POINT_DATA       800 
VECTORS Displacements float
       2.17518995e-25      -1.38777878e-17       0.00000000e+00 
       2.78929395e-23       0.00000000e+00       0.00000000e+00 
      -2.17518995e-25       1.38777878e-17       0.00000000e+00 
      -2.78929395e-23       0.00000000e+00       0.00000000e+00 
      -8.99342745e-09       1.36888627e-08      -2.61970694e-08 
      -2.86986789e-08       1.36888614e-08      -2.63491884e-08 
       8.91246366e-09       1.38409856e-08      -2.63491934e-08 
       2.86177151e-08       1.38409869e-08      -2.61970743e-08 
      -8.99342745e-09       1.36888627e-08      -2.61970694e-08 
      -2.86986789e-08       1.36888614e-08      -2.63491884e-08 
       8.91246366e-09       1.38409856e-08      -2.63491934e-08 
       2.86177151e-08       1.38409869e-08      -2.61970743e-08 
      -1.78139715e-08       5.45559892e-08      -1.04267651e-07 
      -5.68457834e-08       5.45559839e-08      -1.04571884e-07 
       1.76518802e-08       5.48602373e-08      -1.04571904e-07 
       5.66836921e-08       5.48602426e-08      -1.04267671e-07 
      -1.78139715e-08       5.45559892e-08      -1.04267651e-07 
      -5.68457834e-08       5.45559839e-08      -1.04571884e-07 
       1.76518802e-08       5.48602373e-08      -1.04571904e-07 
       5.66836921e-08       5.48602426e-08      -1.04267671e-07 
      -2.64616307e-08       1.22074006e-07      -2.33202623e-07 
      -8.44413122e-08       1.22073995e-07      -2.33658966e-07 
       2.62182515e-08       1.22530382e-07      -2.33659008e-07 
       8.41979328e-08       1.22530394e-07      -2.33202666e-07 
      -2.64616307e-08       1.22074006e-07      -2.33202623e-07 
      -8.44413122e-08       1.22073995e-07      -2.33658966e-07 
       2.62182515e-08       1.22530382e-07      -2.33659008e-07 
       8.41979328e-08       1.22530394e-07      -2.33202666e-07 
      -3.49364032e-08       2.15715542e-07      -4.11992861e-07 
      -1.11485263e-07       2.15715521e-07      -4.12601309e-07 
       3.46115786e-08       2.16324047e-07      -4.12601383e-07 
       1.11160439e-07       2.16324067e-07      -4.11992936e-07 
      -3.49364032e-08       2.15715542e-07      -4.11992861e-07 
      -1.11485263e-07       2.15715521e-07      -4.12601309e-07 
       3.46115786e-08       2.16324047e-07      -4.12601383e-07 
       1.11160439e-07       2.16324067e-07      -4.11992936e-07 
      -4.32382877e-08       3.34953221e-07      -6.39629244e-07 
      -1.37977636e-07       3.34953190e-07      -6.40389792e-07 
       4.28318638e-08       3.35713858e-07      -6.40389906e-07 
       1.37571212e-07       3.35713889e-07      -6.39629358e-07 
      -4.32382877e-08       3.34953221e-07      -6.39629244e-07 
      -1.37977636e-07       3.34953190e-07      -6.40389792e-07 
       4.28318638e-08       3.35713858e-07      -6.40389906e-07 
       1.37571212e-07       3.35713889e-07      -6.39629358e-07 
      -5.13672826e-08       4.79259673e-07      -9.15102647e-07 
      -1.63918427e-07       4.79259629e-07      -9.16015293e-07 
       5.08791080e-08       4.80172443e-07      -9.16015454e-07 
       1.63430253e-07       4.80172487e-07      -9.15102808e-07 
      -5.13672826e-08       4.79259673e-07      -9.15102647e-07 
      -1.63918427e-07       4.79259629e-07      -9.16015293e-07 
       5.08791080e-08       4.80172443e-07      -9.16015454e-07 
       1.63430253e-07       4.80172487e-07      -9.15102808e-07 
      -5.93233860e-08       6.48107523e-07      -1.23740395e-06 
      -1.89307636e-07       6.48107464e-07      -1.23846869e-06 
       5.87533133e-08       6.49172428e-07      -1.23846890e-06 
       1.88737564e-07       6.49172487e-07      -1.23740416e-06 
      -5.93233860e-08       6.48107523e-07      -1.23740395e-06 
      -1.89307636e-07       6.48107464e-07      -1.23846869e-06 
       5.87533133e-08       6.49172428e-07      -1.23846890e-06 
       1.88737564e-07       6.49172487e-07      -1.23740416e-06 
      -6.71065967e-08       8.40969399e-07      -1.60552403e-06 
      -2.14145262e-07       8.40969324e-07      -1.60674086e-06 
       6.64544813e-08       8.42186441e-07      -1.60674113e-06 
       2.13493146e-07       8.42186516e-07      -1.60552430e-06 
      -6.71065967e-08       8.40969399e-07      -1.60552403e-06 
      -2.14145262e-07       8.40969324e-07      -1.60674086e-06 
       6.64544813e-08       8.42186441e-07      -1.60674113e-06 
       2.13493146e-07       8.42186516e-07      -1.60552430e-06 
      -7.47169129e-08       1.05731793e-06      -2.01845375e-06 
      -2.38431302e-07       1.05731783e-06      -2.01982267e-06 
       7.39826129e-08       1.05868711e-06      -2.01982301e-06 
       2.37697002e-07       1.05868720e-06      -2.01845409e-06 
      -7.47169129e-08       1.05731793e-06      -2.01845375e-06 
      -2.38431302e-07       1.05731783e-06      -2.01982267e-06 
       7.39826129e-08       1.05868711e-06      -2.01982301e-06 
       2.37697002e-07       1.05868720e-06      -2.01845409e-06 
      -8.21543327e-08       1.29662574e-06      -2.47518401e-06 
      -2.62165755e-07       1.29662562e-06      -2.47670501e-06 
       8.13377108e-08       1.29814706e-06      -2.47670543e-06 
       2.61349133e-07       1.29814717e-06      -2.47518442e-06 
      -8.21543329e-08       1.29662574e-06      -2.47518401e-06 
      -2.62165755e-07       1.29662562e-06      -2.47670501e-06 
       8.13377103e-08       1.29814706e-06      -2.47670543e-06 
       2.61349133e-07       1.29814717e-06      -2.47518442e-06 
      -8.94136214e-08       1.55838271e-06      -2.97473152e-06 
      -2.85363325e-07       1.55838258e-06      -2.97638860e-06 
       8.85434748e-08       1.56004016e-06      -2.97638908e-06 
       2.84493179e-07       1.56004030e-06      -2.97473201e-06 
      -8.94136214e-08       1.55838271e-06      -2.97473152e-06 
      -2.85363325e-07       1.55838258e-06      -2.97638860e-06 
       8.85434748e-08       1.56004016e-06      -2.97638908e-06 
       2.84493179e-07       1.56004030e-06      -2.97473201e-06 
      -9.65185460e-08       1.84209975e-06      -3.51616821e-06 
      -3.08067716e-07       1.84209959e-06      -3.51796136e-06 
       9.55945150e-08       1.84389334e-06      -3.51796193e-06 
       3.07143684e-07       1.84389350e-06      -3.51616878e-06 
      -9.65185460e-08       1.84209975e-06      -3.51616821e-06 
      -3.08067716e-07       1.84209959e-06      -3.51796136e-06 
       9.55945150e-08       1.84389334e-06      -3.51796193e-06 
       3.07143684e-07       1.84389350e-06      -3.51616878e-06 
      -1.03469104e-07       2.14730502e-06      -4.09859181e-06 
      -3.30278924e-07       2.14730484e-06      -4.10052103e-06 
       1.02490833e-07       2.14923474e-06      -4.10052168e-06 
       3.29300653e-07       2.14923492e-06      -4.09859246e-06 
      -1.03469104e-07       2.14730502e-06      -4.09859181e-06 
      -3.30278924e-07       2.14730484e-06      -4.10052103e-06 
       1.02490833e-07       2.14923474e-06      -4.10052168e-06 
       3.29300653e-07       2.14923492e-06      -4.09859246e-06 
      -1.10265290e-07       2.47352667e-06      -4.72110002e-06 
      -3.51996945e-07       2.47352646e-06      -4.72316531e-06 
       1.09232434e-07       2.47559253e-06      -4.72316605e-06 
       3.50964089e-07       2.47559273e-06      -4.72110076e-06 
      -1.10265290e-07       2.47352667e-06      -4.72110002e-06 
      -3.51996945e-07       2.47352646e-06      -4.72316531e-06 
       1.09232434e-07       2.47559253e-06      -4.72316605e-06 
       3.50964089e-07       2.47559273e-06      -4.72110076e-06 
      -1.16907101e-07       2.82029286e-06      -5.38279056e-06 
      -3.73221777e-07       2.82029263e-06      -5.38499192e-06 
       1.15819321e-07       2.82249486e-06      -5.38499276e-06 
       3.72133997e-07       2.82249509e-06      -5.38279140e-06 
      -1.16907101e-07       2.82029286e-06      -5.38279056e-06 
      -3.73221777e-07       2.82029263e-06      -5.38499192e-06 
       1.15819321e-07       2.82249486e-06      -5.38499276e-06 
       3.72133997e-07       2.82249509e-06      -5.38279140e-06 
      -1.23394533e-07       3.18713175e-06      -6.08276116e-06 
      -3.93953414e-07       3.18713150e-06      -6.08509858e-06 
       1.22251498e-07       3.18946989e-06      -6.08509951e-06 
       3.92810379e-07       3.18947015e-06      -6.08276208e-06 
      -1.23394533e-07       3.18713175e-06      -6.08276116e-06 
      -3.93953414e-07       3.18713150e-06      -6.08509858e-06 
       1.22251498e-07       3.18946989e-06      -6.08509951e-06 
       3.92810379e-07       3.18947015e-06      -6.08276208e-06 
      -1.29727582e-07       3.57357151e-06      -6.82010951e-06 
      -4.14191853e-07       3.57357122e-06      -6.82258300e-06 
       1.28528970e-07       3.57604579e-06      -6.82258403e-06 
       4.12993240e-07       3.57604607e-06      -6.82011054e-06 
      -1.29727582e-07       3.57357151e-06      -6.82010951e-06 
      -4.14191853e-07       3.57357122e-06      -6.82258300e-06 
       1.28528970e-07       3.57604579e-06      -6.82258403e-06 
       4.12993240e-07       3.57604607e-06      -6.82011054e-06 
      -1.35906244e-07       3.97914028e-06      -7.59393334e-06 
      -4.33937089e-07       3.97913997e-06      -7.59654290e-06 
       1.34651741e-07       3.98175070e-06      -7.59654402e-06 
       4.32682585e-07       3.98175101e-06      -7.59393447e-06 
      -1.35906244e-07       3.97914028e-06      -7.59393334e-06 
      -4.33937089e-07       3.97913997e-06      -7.59654290e-06 
       1.34651741e-07       3.98175070e-06      -7.59654402e-06 
       4.32682585e-07       3.98175101e-06      -7.59393447e-06 
      -1.41930515e-07       4.40336623e-06      -8.40333037e-06 
      -4.53189119e-07       4.40336589e-06      -8.40607599e-06 
       1.40619813e-07       4.40611279e-06      -8.40607721e-06 
       4.51878416e-07       4.40611313e-06      -8.40333160e-06 
      -1.41930515e-07       4.40336623e-06      -8.40333037e-06 
      -4.53189119e-07       4.40336589e-06      -8.40607599e-06 
       1.40619813e-07       4.40611279e-06      -8.40607721e-06 
       4.51878416e-07       4.40611313e-06      -8.40333160e-06 
      -1.47800392e-07       4.84577752e-06      -9.24739831e-06 
      -4.71947940e-07       4.84577715e-06      -9.25027998e-06 
       1.46433191e-07       4.84866022e-06      -9.25028131e-06 
       4.70580739e-07       4.84866059e-06      -9.24739964e-06 
      -1.47800392e-07       4.84577752e-06      -9.24739831e-06 
      -4.71947940e-07       4.84577715e-06      -9.25027998e-06 
       1.46433191e-07       4.84866022e-06      -9.25028131e-06 
       4.70580739e-07       4.84866059e-06      -9.24739964e-06 
      -1.53514915e-07       5.30591956e-06      -1.01252607e-05 
      -4.90232530e-07       5.30591917e-06      -1.01282624e-05 
       1.52111273e-07       5.30892240e-06      -1.01282639e-05 
       4.88828888e-07       5.30892279e-06      -1.01252621e-05 
      -1.53514915e-07       5.30591956e-06      -1.01252607e-05 
      -4.90232530e-07       5.30591917e-06      -1.01282624e-05 
       1.52111273e-07       5.30892240e-06      -1.01282639e-05 
       4.88828888e-07       5.30892279e-06      -1.01252621e-05 
      -1.59093494e-07       5.78335879e-06      -1.10360962e-05 
      -5.08082233e-07       5.78335836e-06      -1.10392180e-05 
       1.57652983e-07       5.78648176e-06      -1.10392196e-05 
       5.06641722e-07       5.78648218e-06      -1.10360978e-05 
      -1.59093494e-07       5.78335879e-06      -1.10360962e-05 
      -5.08082233e-07       5.78335836e-06      -1.10392180e-05 
       1.57652983e-07       5.78648176e-06      -1.10392196e-05 
       5.06641722e-07       5.78648218e-06      -1.10360978e-05 
      -1.64536123e-07       6.27767888e-06      -1.19791094e-05 
      -5.25497045e-07       6.27767843e-06      -1.19823512e-05 
       1.63058328e-07       6.28092199e-06      -1.19823529e-05 
       5.24019250e-07       6.28092244e-06      -1.19791110e-05 
      -1.64536123e-07       6.27767888e-06      -1.19791094e-05 
      -5.25497045e-07       6.27767843e-06      -1.19823512e-05 
       1.63058328e-07       6.28092199e-06      -1.19823529e-05 
       5.24019250e-07       6.28092244e-06      -1.19791110e-05 
      -1.69842798e-07       6.78846354e-06      -1.29535046e-05 
      -5.42476961e-07       6.78846306e-06      -1.29568665e-05 
       1.68327310e-07       6.79182677e-06      -1.29568682e-05 
       5.40961473e-07       6.79182726e-06      -1.29535064e-05 
      -1.69842798e-07       6.78846354e-06      -1.29535046e-05 
      -5.42476961e-07       6.78846306e-06      -1.29568665e-05 
       1.68327310e-07       6.79182677e-06      -1.29568682e-05 
       5.40961473e-07       6.79182726e-06      -1.29535064e-05 
      -1.75013514e-07       7.31529644e-06      -1.39584863e-05 
      -5.59021975e-07       7.31529593e-06      -1.39619683e-05 
       1.73459936e-07       7.31877981e-06      -1.39619701e-05 
       5.57468399e-07       7.31878032e-06      -1.39584882e-05 
      -1.75013514e-07       7.31529644e-06      -1.39584863e-05 
      -5.59021975e-07       7.31529593e-06      -1.39619683e-05 
       1.73459936e-07       7.31877981e-06      -1.39619701e-05 
       5.57468399e-07       7.31878032e-06      -1.39584882e-05 
      -1.80048265e-07       7.85776127e-06      -1.49932590e-05 
      -5.75132083e-07       7.85776073e-06      -1.49968610e-05 
       1.78456212e-07       7.86136477e-06      -1.49968630e-05 
       5.73540031e-07       7.86136532e-06      -1.49932610e-05 
      -1.80048265e-07       7.85776127e-06      -1.49932590e-05 
      -5.75132083e-07       7.85776073e-06      -1.49968610e-05 
       1.78456212e-07       7.86136477e-06      -1.49968630e-05 
       5.73540031e-07       7.86136532e-06      -1.49932610e-05 
      -1.84947046e-07       8.41544172e-06      -1.60570272e-05 
      -5.90807280e-07       8.41544115e-06      -1.60607492e-05 
       1.83316142e-07       8.41916536e-06      -1.60607513e-05 
       5.89176375e-07       8.41916593e-06      -1.60570293e-05 
      -1.84947046e-07       8.41544172e-06      -1.60570272e-05 
      -5.90807280e-07       8.41544115e-06      -1.60607492e-05 
       1.83316142e-07       8.41916536e-06      -1.60607513e-05 
       5.89176375e-07       8.41916593e-06      -1.60570293e-05 
      -1.89709850e-07       8.98792148e-06      -1.71489952e-05 
      -6.06047558e-07       8.98792088e-06      -1.71528373e-05 
       1.88039731e-07       8.99176525e-06      -1.71528395e-05 
       6.04377439e-07       8.99176585e-06      -1.71489974e-05 
      -1.89709850e-07       8.98792148e-06      -1.71489952e-05 
      -6.06047558e-07       8.98792088e-06      -1.71528373e-05 
       1.88039731e-07       8.99176525e-06      -1.71528395e-05 
       6.04377439e-07       8.99176585e-06      -1.71489974e-05 
      -1.94336677e-07       9.57478424e-06      -1.82683675e-05 
      -6.20852915e-07       9.57478360e-06      -1.82723296e-05 
       1.92626985e-07       9.57874814e-06      -1.82723320e-05 
       6.19143223e-07       9.57874877e-06      -1.82683698e-05 
      -1.94336677e-07       9.57478424e-06      -1.82683675e-05 
      -6.20852915e-07       9.57478360e-06      -1.82723296e-05 
       1.92626985e-07       9.57874814e-06      -1.82723320e-05 
       6.19143223e-07       9.57874877e-06      -1.82683698e-05 
      -1.98827516e-07       1.01756137e-05      -1.94143487e-05 
      -6.35223344e-07       1.01756130e-05      -1.94184308e-05 
       1.97077908e-07       1.01796977e-05      -1.94184332e-05 
       6.33473736e-07       1.01796984e-05      -1.94143511e-05 
      -1.98827516e-07       1.01756137e-05      -1.94143487e-05 
      -6.35223344e-07       1.01756130e-05      -1.94184308e-05 
       1.97077908e-07       1.01796977e-05      -1.94184332e-05 
       6.33473736e-07       1.01796984e-05      -1.94143511e-05 
      -2.03184739e-07       1.07900107e-05      -2.05861689e-05 
      -6.49181151e-07       1.07900100e-05      -2.05903551e-05 
       2.01408538e-07       1.07941989e-05      -2.05903576e-05 
       6.47404949e-07       1.07941996e-05      -2.05861714e-05 
      -2.03184739e-07       1.07900107e-05      -2.05861689e-05 
      -6.49181151e-07       1.07900100e-05      -2.05903551e-05 
       2.01408538e-07       1.07941989e-05      -2.05903576e-05 
       6.47404949e-07       1.07941996e-05      -2.05861714e-05 
      -2.07424356e-07       1.14175974e-05      -2.17831135e-05 
      -6.62762281e-07       1.14175967e-05      -2.17874037e-05 
       2.05621152e-07       1.14218896e-05      -2.17874063e-05 
       6.60959077e-07       1.14218904e-05      -2.17831161e-05 
      -2.07424356e-07       1.14175974e-05      -2.17831135e-05 
      -6.62762281e-07       1.14175967e-05      -2.17874037e-05 
       2.05621152e-07       1.14218896e-05      -2.17874063e-05 
       6.60959077e-07       1.14218904e-05      -2.17831161e-05 
      -2.11546360e-07       1.20580128e-05      -2.30044936e-05 
      -6.75966726e-07       1.20580121e-05      -2.30088878e-05 
       2.09715759e-07       1.20624092e-05      -2.30088906e-05 
       6.74136125e-07       1.20624100e-05      -2.30044963e-05 
      -2.11546360e-07       1.20580128e-05      -2.30044936e-05 
      -6.75966726e-07       1.20580121e-05      -2.30088878e-05 
       2.09715759e-07       1.20624092e-05      -2.30088906e-05 
       6.74136125e-07       1.20624100e-05      -2.30044963e-05 
      -2.15550748e-07       1.27108963e-05      -2.42496202e-05 
      -6.88794485e-07       1.27108955e-05      -2.42541185e-05 
       2.13692360e-07       1.27153968e-05      -2.42541214e-05 
       6.86936097e-07       1.27153976e-05      -2.42496230e-05 
      -2.15550748e-07       1.27108963e-05      -2.42496202e-05 
      -6.88794485e-07       1.27108955e-05      -2.42541185e-05 
       2.13692360e-07       1.27153968e-05      -2.42541214e-05 
       6.86936097e-07       1.27153976e-05      -2.42496230e-05 
      -2.19437513e-07       1.33758869e-05      -2.55178045e-05 
      -7.01245550e-07       1.33758861e-05      -2.55224069e-05 
       2.17550962e-07       1.33804916e-05      -2.55224098e-05 
       6.99359000e-07       1.33804924e-05      -2.55178075e-05 
      -2.19437513e-07       1.33758869e-05      -2.55178045e-05 
      -7.01245550e-07       1.33758861e-05      -2.55224069e-05 
       2.17550962e-07       1.33804916e-05      -2.55224098e-05 
       6.99359000e-07       1.33804924e-05      -2.55178075e-05 
      -2.23206649e-07       1.40526240e-05      -2.68083576e-05 
      -7.13319915e-07       1.40526232e-05      -2.68130640e-05 
       2.21291573e-07       1.40573328e-05      -2.68130670e-05 
       7.11404839e-07       1.40573336e-05      -2.68083606e-05 
      -2.23206649e-07       1.40526240e-05      -2.68083576e-05 
      -7.13319915e-07       1.40526232e-05      -2.68130640e-05 
       2.21291573e-07       1.40573328e-05      -2.68130670e-05 
       7.11404839e-07       1.40573336e-05      -2.68083606e-05 
      -2.26858152e-07       1.47407468e-05      -2.81205904e-05 
      -7.25017576e-07       1.47407459e-05      -2.81254009e-05 
       2.24914196e-07       1.47455596e-05      -2.81254040e-05 
       7.23073620e-07       1.47455605e-05      -2.81205936e-05 
      -2.26858152e-07       1.47407468e-05      -2.81205904e-05 
      -7.25017576e-07       1.47407459e-05      -2.81254009e-05 
       2.24914196e-07       1.47455596e-05      -2.81254040e-05 
       7.23073620e-07       1.47455605e-05      -2.81205936e-05 
      -2.30392013e-07       1.54398943e-05      -2.94538142e-05 
      -7.36338523e-07       1.54398935e-05      -2.94587286e-05 
       2.28418839e-07       1.54448113e-05      -2.94587319e-05 
       7.34365350e-07       1.54448122e-05      -2.94538174e-05 
      -2.30392013e-07       1.54398943e-05      -2.94538142e-05 
      -7.36338523e-07       1.54398935e-05      -2.94587286e-05 