# vtk DataFile Version 2.0
./output/onsasExample_BladeCantileverBeamPitch_windVel3DDynamic 3D/onsasExample_BladeCantileverBeamPitch_windVel3DDynamic 3D_0016.vtk
ASCII
DATASET UNSTRUCTURED_GRID

POINTS 800 float
       6.622231e-24      -7.180703e-02      -7.180703e-02 
      -4.542534e-24       7.180703e-02      -7.180703e-02 
      -6.622231e-24       7.180703e-02       7.180703e-02 
       4.542534e-24      -7.180703e-02       7.180703e-02 
       2.000000e-01      -7.180702e-02      -7.180706e-02 
       2.000000e-01       7.180705e-02      -7.180706e-02 
       2.000000e-01       7.180705e-02       7.180701e-02 
       2.000000e-01      -7.180702e-02       7.180701e-02 
       2.000000e-01      -7.180702e-02      -7.180706e-02 
       2.000000e-01       7.180705e-02      -7.180706e-02 
       2.000000e-01       7.180705e-02       7.180701e-02 
       2.000000e-01      -7.180702e-02       7.180701e-02 
       4.000000e-01      -7.180698e-02      -7.180713e-02 
       3.999999e-01       7.180709e-02      -7.180713e-02 
       4.000000e-01       7.180709e-02       7.180694e-02 
       4.000001e-01      -7.180698e-02       7.180694e-02 
       4.000000e-01      -7.180698e-02      -7.180713e-02 
       3.999999e-01       7.180709e-02      -7.180713e-02 
       4.000000e-01       7.180709e-02       7.180694e-02 
       4.000001e-01      -7.180698e-02       7.180694e-02 
       6.000000e-01      -7.180691e-02      -7.180725e-02 
       5.999999e-01       7.180715e-02      -7.180725e-02 
       6.000000e-01       7.180715e-02       7.180682e-02 
       6.000001e-01      -7.180691e-02       7.180682e-02 
       6.000000e-01      -7.180691e-02      -7.180725e-02 
       5.999999e-01       7.180715e-02      -7.180725e-02 
       6.000000e-01       7.180715e-02       7.180682e-02 
       6.000001e-01      -7.180691e-02       7.180682e-02 
       8.000000e-01      -7.180682e-02      -7.180741e-02 
       7.999999e-01       7.180725e-02      -7.180741e-02 
       8.000000e-01       7.180725e-02       7.180665e-02 
       8.000001e-01      -7.180682e-02       7.180665e-02 
       8.000000e-01      -7.180682e-02      -7.180741e-02 
       7.999999e-01       7.180725e-02      -7.180741e-02 
       8.000000e-01       7.180725e-02       7.180665e-02 
       8.000001e-01      -7.180682e-02       7.180665e-02 
       1.000000e+00      -7.180670e-02      -7.180762e-02 
       9.999999e-01       7.180737e-02      -7.180762e-02 
       1.000000e+00       7.180737e-02       7.180644e-02 
       1.000000e+00      -7.180670e-02       7.180644e-02 
       1.000000e+00      -7.180670e-02      -7.180762e-02 
       9.999999e-01       7.180737e-02      -7.180762e-02 
       1.000000e+00       7.180737e-02       7.180644e-02 
       1.000000e+00      -7.180670e-02       7.180644e-02 
       1.200000e+00      -7.180656e-02      -7.180788e-02 
       1.200000e+00       7.180751e-02      -7.180788e-02 
       1.200000e+00       7.180751e-02       7.180619e-02 
       1.200000e+00      -7.180656e-02       7.180619e-02 
       1.200000e+00      -7.180656e-02      -7.180788e-02 
       1.200000e+00       7.180751e-02      -7.180788e-02 
       1.200000e+00       7.180751e-02       7.180619e-02 
       1.200000e+00      -7.180656e-02       7.180619e-02 
       1.400000e+00      -7.180639e-02      -7.180818e-02 
       1.400000e+00       7.180768e-02      -7.180818e-02 
       1.400000e+00       7.180768e-02       7.180589e-02 
       1.400000e+00      -7.180639e-02       7.180589e-02 
       1.400000e+00      -7.180639e-02      -7.180818e-02 
       1.400000e+00       7.180768e-02      -7.180818e-02 
       1.400000e+00       7.180768e-02       7.180589e-02 
       1.400000e+00      -7.180639e-02       7.180589e-02 
       1.600000e+00      -7.180620e-02      -7.180851e-02 
       1.600000e+00       7.180787e-02      -7.180852e-02 
       1.600000e+00       7.180787e-02       7.180555e-02 
       1.600000e+00      -7.180620e-02       7.180555e-02 
       1.600000e+00      -7.180620e-02      -7.180851e-02 
       1.600000e+00       7.180787e-02      -7.180852e-02 
       1.600000e+00       7.180787e-02       7.180555e-02 
       1.600000e+00      -7.180620e-02       7.180555e-02 
       1.800000e+00      -7.180598e-02      -7.180890e-02 
       1.800000e+00       7.180808e-02      -7.180890e-02 
       1.800000e+00       7.180809e-02       7.180517e-02 
       1.800000e+00      -7.180598e-02       7.180517e-02 
       1.800000e+00      -7.180598e-02      -7.180890e-02 
       1.800000e+00       7.180808e-02      -7.180890e-02 
       1.800000e+00       7.180809e-02       7.180517e-02 
       1.800000e+00      -7.180598e-02       7.180517e-02 
       2.000000e+00      -7.180574e-02      -7.180932e-02 
       2.000000e+00       7.180832e-02      -7.180932e-02 
       2.000000e+00       7.180832e-02       7.180475e-02 
       2.000000e+00      -7.180574e-02       7.180475e-02 
       2.000000e+00      -7.180574e-02      -7.180932e-02 
       2.000000e+00       7.180832e-02      -7.180932e-02 
       2.000000e+00       7.180832e-02       7.180475e-02 
       2.000000e+00      -7.180574e-02       7.180475e-02 
       2.200000e+00      -7.180548e-02      -7.180978e-02 
       2.200000e+00       7.180858e-02      -7.180978e-02 
       2.200000e+00       7.180858e-02       7.180429e-02 
       2.200000e+00      -7.180548e-02       7.180429e-02 
       2.200000e+00      -7.180548e-02      -7.180978e-02 
       2.200000e+00       7.180858e-02      -7.180978e-02 
       2.200000e+00       7.180858e-02       7.180429e-02 
       2.200000e+00      -7.180548e-02       7.180429e-02 
       2.400000e+00      -7.180520e-02      -7.181027e-02 
       2.400000e+00       7.180886e-02      -7.181028e-02 
       2.400000e+00       7.180887e-02       7.180379e-02 
       2.400000e+00      -7.180520e-02       7.180379e-02 
       2.400000e+00      -7.180520e-02      -7.181027e-02 
       2.400000e+00       7.180886e-02      -7.181028e-02 
       2.400000e+00       7.180887e-02       7.180379e-02 
       2.400000e+00      -7.180520e-02       7.180379e-02 
       2.600000e+00      -7.180490e-02      -7.181081e-02 
       2.600000e+00       7.180917e-02      -7.181081e-02 
       2.600000e+00       7.180917e-02       7.180325e-02 
       2.600000e+00      -7.180490e-02       7.180326e-02 
       2.600000e+00      -7.180490e-02      -7.181081e-02 
       2.600000e+00       7.180917e-02      -7.181081e-02 
       2.600000e+00       7.180917e-02       7.180325e-02 
       2.600000e+00      -7.180490e-02       7.180326e-02 
       2.800000e+00      -7.180457e-02      -7.181138e-02 
       2.800000e+00       7.180949e-02      -7.181139e-02 
       2.800000e+00       7.180949e-02       7.180268e-02 
       2.800000e+00      -7.180457e-02       7.180268e-02 
       2.800000e+00      -7.180457e-02      -7.181138e-02 
       2.800000e+00       7.180949e-02      -7.181139e-02 
       2.800000e+00       7.180949e-02       7.180268e-02 
       2.800000e+00      -7.180457e-02       7.180268e-02 
       3.000000e+00      -7.180423e-02      -7.181199e-02 
       3.000000e+00       7.180984e-02      -7.181199e-02 
       3.000000e+00       7.180984e-02       7.180207e-02 
       3.000000e+00      -7.180423e-02       7.180207e-02 
       3.000000e+00      -7.180423e-02      -7.181199e-02 
       3.000000e+00       7.180984e-02      -7.181199e-02 
       3.000000e+00       7.180984e-02       7.180207e-02 
       3.000000e+00      -7.180423e-02       7.180207e-02 
       3.200000e+00      -7.180386e-02      -7.181264e-02 
       3.200000e+00       7.181020e-02      -7.181264e-02 
       3.200000e+00       7.181020e-02       7.180143e-02 
       3.200000e+00      -7.180386e-02       7.180143e-02 
       3.200000e+00      -7.180386e-02      -7.181264e-02 
       3.200000e+00       7.181020e-02      -7.181264e-02 
       3.200000e+00       7.181020e-02       7.180143e-02 
       3.200000e+00      -7.180386e-02       7.180143e-02 
       3.400000e+00      -7.180348e-02      -7.181331e-02 
       3.400000e+00       7.181059e-02      -7.181332e-02 
       3.400000e+00       7.181059e-02       7.180075e-02 
       3.400000e+00      -7.180348e-02       7.180075e-02 
       3.400000e+00      -7.180348e-02      -7.181331e-02 
       3.400000e+00       7.181059e-02      -7.181332e-02 
       3.400000e+00       7.181059e-02       7.180075e-02 
       3.400000e+00      -7.180348e-02       7.180075e-02 
       3.600000e+00      -7.180308e-02      -7.181402e-02 
       3.600000e+00       7.181099e-02      -7.181403e-02 
       3.600000e+00       7.181099e-02       7.180004e-02 
       3.600000e+00      -7.180307e-02       7.180004e-02 
       3.600000e+00      -7.180308e-02      -7.181402e-02 
       3.600000e+00       7.181099e-02      -7.181403e-02 
       3.600000e+00       7.181099e-02       7.180004e-02 
       3.600000e+00      -7.180307e-02       7.180004e-02 
       3.800000e+00      -7.180266e-02      -7.181477e-02 
       3.800000e+00       7.181141e-02      -7.181477e-02 
       3.800000e+00       7.181141e-02       7.179930e-02 
       3.800000e+00      -7.180265e-02       7.179930e-02 
       3.800000e+00      -7.180266e-02      -7.181477e-02 
       3.800000e+00       7.181141e-02      -7.181477e-02 
       3.800000e+00       7.181141e-02       7.179930e-02 
       3.800000e+00      -7.180265e-02       7.179930e-02 
       4.000000e+00      -7.180222e-02      -7.181554e-02 
       4.000000e+00       7.181185e-02      -7.181554e-02 
       4.000000e+00       7.181185e-02       7.179852e-02 
       4.000000e+00      -7.180221e-02       7.179853e-02 
       4.000000e+00      -7.180222e-02      -7.181554e-02 
       4.000000e+00       7.181185e-02      -7.181554e-02 
       4.000000e+00       7.181185e-02       7.179852e-02 
       4.000000e+00      -7.180221e-02       7.179853e-02 
       4.200000e+00      -7.180176e-02      -7.181635e-02 
[...]
POINT_DATA       800 
VECTORS Displacements float
       6.62223137e-24       1.38777878e-17       0.00000000e+00 
      -4.54253354e-24       0.00000000e+00       0.00000000e+00 
      -6.62223137e-24      -1.38777878e-17       0.00000000e+00 
       4.54253354e-24       0.00000000e+00       0.00000000e+00 
      -7.62562671e-09       1.36160197e-08      -2.42169503e-08 
      -2.72260194e-08       1.36160184e-08      -2.43686480e-08 
       7.54599466e-09       1.37677208e-08      -2.43686522e-08 
       2.71463874e-08       1.37677222e-08      -2.42169545e-08 
      -7.62562671e-09       1.36160197e-08      -2.42169503e-08 
      -2.72260194e-08       1.36160184e-08      -2.43686480e-08 
       7.54599466e-09       1.37677208e-08      -2.43686522e-08 
       2.71463874e-08       1.37677222e-08      -2.42169545e-08 
      -1.50929026e-08       5.42645123e-08      -9.63740721e-08 
      -5.39153378e-08       5.42645070e-08      -9.66774629e-08 
       1.49334941e-08       5.45679164e-08      -9.66774793e-08 
       5.37559293e-08       5.45679217e-08      -9.63740886e-08 
      -1.50929026e-08       5.42645123e-08      -9.63740721e-08 
      -5.39153378e-08       5.42645070e-08      -9.66774629e-08 
       1.49334941e-08       5.45679164e-08      -9.66774793e-08 
       5.37559293e-08       5.45679217e-08      -9.63740886e-08 
      -2.24018262e-08       1.21418579e-07      -2.15503220e-07 
      -8.00679538e-08       1.21418568e-07      -2.15958300e-07 
       2.21624997e-08       1.21873688e-07      -2.15958336e-07 
       7.98286274e-08       1.21873700e-07      -2.15503257e-07 
      -2.24018262e-08       1.21418579e-07      -2.15503220e-07 
      -8.00679538e-08       1.21418568e-07      -2.15958300e-07 
       2.21624997e-08       1.21873688e-07      -2.15958336e-07 
       7.98286274e-08       1.21873700e-07      -2.15503257e-07 
      -2.95523958e-08       2.14551322e-07      -3.80636251e-07 
      -1.05683866e-07       2.14551302e-07      -3.81243015e-07 
       2.92330129e-08       2.15158138e-07      -3.81243078e-07 
       1.05364483e-07       2.15158158e-07      -3.80636314e-07 
      -2.95523958e-08       2.14551322e-07      -3.80636251e-07 
      -1.05683866e-07       2.14551302e-07      -3.81243015e-07 
       2.92330129e-08       2.15158138e-07      -3.81243078e-07 
       1.05364483e-07       2.15158158e-07      -3.80636314e-07 
      -3.65446106e-08       3.33135843e-07      -5.90805018e-07 
      -1.30763073e-07       3.33135812e-07      -5.91563463e-07 
       3.61450352e-08       3.33894367e-07      -5.91563560e-07 
       1.30363498e-07       3.33894398e-07      -5.90805115e-07 
      -3.65446106e-08       3.33135843e-07      -5.90805018e-07 
      -1.30763073e-07       3.33135812e-07      -5.91563463e-07 
       3.61450352e-08       3.33894367e-07      -5.91563560e-07 
       1.30363498e-07       3.33894398e-07      -5.90805115e-07 
      -4.33784684e-08       4.76645244e-07      -8.45041377e-07 
      -1.55305573e-07       4.76645200e-07      -8.45951500e-07 
       4.28985683e-08       4.77555477e-07      -8.45951637e-07 
       1.54825673e-07       4.77555521e-07      -8.45041514e-07 
      -4.33784684e-08       4.76645244e-07      -8.45041377e-07 
      -1.55305573e-07       4.76645200e-07      -8.45951500e-07 
       4.28985683e-08       4.77555477e-07      -8.45951637e-07 
       1.54825673e-07       4.77555521e-07      -8.45041514e-07 
      -5.00539681e-08       6.44552625e-07      -1.14237718e-06 
      -1.79311365e-07       6.44552567e-07      -1.14343898e-06 
       4.94936132e-08       6.45614570e-07      -1.14343916e-06 
       1.78751010e-07       6.45614628e-07      -1.14237737e-06 
      -5.00539681e-08       6.44552625e-07      -1.14237718e-06 
      -1.79311365e-07       6.44552567e-07      -1.14343898e-06 
       4.94936132e-08       6.45614570e-07      -1.14343916e-06 
       1.78751010e-07       6.45614628e-07      -1.14237737e-06 
      -5.65711085e-08       8.36331089e-07      -1.48184429e-06 
      -2.02780447e-07       8.36331015e-07      -1.48305776e-06 
       5.59301716e-08       8.37544747e-07      -1.48305799e-06 
       2.02139510e-07       8.37544821e-07      -1.48184452e-06 
      -5.65711085e-08       8.36331089e-07      -1.48184429e-06 
      -2.02780447e-07       8.36331015e-07      -1.48305776e-06 
       5.59301716e-08       8.37544747e-07      -1.48305799e-06 
       2.02139510e-07       8.37544821e-07      -1.48184452e-06 
      -6.29298877e-08       1.05145374e-06      -1.86247456e-06 
      -2.25712819e-07       1.05145365e-06      -1.86383969e-06 
       6.22082448e-08       1.05281911e-06      -1.86383998e-06 
       2.24991176e-07       1.05281920e-06      -1.86247485e-06 
      -6.29298877e-08       1.05145374e-06      -1.86247456e-06 
      -2.25712819e-07       1.05145365e-06      -1.86383969e-06 
       6.22082448e-08       1.05281911e-06      -1.86383998e-06 
       2.24991176e-07       1.05281920e-06      -1.86247485e-06 
      -6.91303046e-08       1.28939367e-06      -2.28329984e-06 
      -2.48108478e-07       1.28939356e-06      -2.28481664e-06 
       6.83278341e-08       1.29091076e-06      -2.28481699e-06 
       2.47306007e-07       1.29091087e-06      -2.28330019e-06 
      -6.91303046e-08       1.28939367e-06      -2.28329984e-06 
      -2.48108478e-07       1.28939356e-06      -2.28481664e-06 
       6.83278341e-08       1.29091076e-06      -2.28481699e-06 
       2.47306007e-07       1.29091087e-06      -2.28330019e-06 
      -7.51683613e-08       1.54964135e-06      -2.74337886e-06 
      -2.69983565e-07       1.54964122e-06      -2.74503133e-06 
       7.43131414e-08       1.55129416e-06      -2.74503174e-06 
       2.69128345e-07       1.55129429e-06      -2.74337927e-06 
      -7.51683613e-08       1.54964135e-06      -2.74337886e-06 
      -2.69983565e-07       1.54964122e-06      -2.74503133e-06 
       7.43131414e-08       1.55129416e-06      -2.74503174e-06 
       2.69128345e-07       1.55129429e-06      -2.74337927e-06 
      -8.10677485e-08       1.83170854e-06      -3.24182806e-06 
      -2.91381812e-07       1.83170839e-06      -3.24361619e-06 
       8.01594644e-08       1.83349707e-06      -3.24361667e-06 
       2.90473529e-07       1.83349723e-06      -3.24182854e-06 
      -8.10677485e-08       1.83170854e-06      -3.24182806e-06 
      -2.91381812e-07       1.83170839e-06      -3.24361619e-06 
       8.01594644e-08       1.83349707e-06      -3.24361667e-06 
       2.90473529e-07       1.83349723e-06      -3.24182854e-06 
      -8.68284640e-08       2.13512430e-06      -3.77778982e-06 
      -3.12303218e-07       2.13512413e-06      -3.77971362e-06 
       8.58668066e-08       2.13704856e-06      -3.77971417e-06 
       3.11341561e-07       2.13704873e-06      -3.77779037e-06 
      -8.68284640e-08       2.13512430e-06      -3.77778982e-06 
      -3.12303218e-07       2.13512413e-06      -3.77971362e-06 
       8.58668066e-08       2.13704856e-06      -3.77971417e-06 
       3.11341561e-07       2.13704873e-06      -3.77779037e-06 
      -9.24505033e-08       2.45941769e-06      -4.35040653e-06 
      -3.32747779e-07       2.45941749e-06      -4.35246600e-06 
       9.14351710e-08       2.46147767e-06      -4.35246662e-06 
       3.31732446e-07       2.46147787e-06      -4.35040716e-06 
      -9.24505033e-08       2.45941769e-06      -4.35040653e-06 
      -3.32747779e-07       2.45941749e-06      -4.35246600e-06 
       9.14351710e-08       2.46147767e-06      -4.35246662e-06 
       3.31732446e-07       2.46147787e-06      -4.35040716e-06 
      -9.79338641e-08       2.80411777e-06      -4.95882060e-06 
      -3.52715490e-07       2.80411754e-06      -4.96101572e-06 
       9.68645608e-08       2.80631346e-06      -4.96101643e-06 
       3.51646187e-07       2.80631369e-06      -4.95882130e-06 
      -9.79338641e-08       2.80411777e-06      -4.95882060e-06 
      -3.52715490e-07       2.80411754e-06      -4.96101572e-06 
       9.68645608e-08       2.80631346e-06      -4.96101643e-06 
       3.51646187e-07       2.80631369e-06      -4.95882130e-06 
      -1.03278542e-07       3.16875358e-06      -5.60217440e-06 
      -3.72206348e-07       3.16875333e-06      -5.60450518e-06 
       1.02154980e-07       3.17108500e-06      -5.60450597e-06 
       3.71082787e-07       3.17108525e-06      -5.60217518e-06 
      -1.03278542e-07       3.16875358e-06      -5.60217440e-06 
      -3.72206348e-07       3.16875333e-06      -5.60450518e-06 
       1.02154980e-07       3.17108500e-06      -5.60450597e-06 
       3.71082787e-07       3.17108525e-06      -5.60217518e-06 
      -1.08484534e-07       3.55285419e-06      -6.27961033e-06 
      -3.91220350e-07       3.55285391e-06      -6.28207677e-06 
       1.07306434e-07       3.55532134e-06      -6.28207764e-06 
       3.90042250e-07       3.55532162e-06      -6.27961119e-06 
      -1.08484534e-07       3.55285419e-06      -6.27961033e-06 
      -3.91220350e-07       3.55285391e-06      -6.28207677e-06 
       1.07306434e-07       3.55532134e-06      -6.28207764e-06 
       3.90042250e-07       3.55532162e-06      -6.27961119e-06 
      -1.13551835e-07       3.95594866e-06      -6.99027078e-06 
      -4.09757492e-07       3.95594836e-06      -6.99287289e-06 
       1.12318923e-07       3.95855153e-06      -6.99287383e-06 
       4.08524580e-07       3.95855184e-06      -6.99027173e-06 
      -1.13551835e-07       3.95594866e-06      -6.99027078e-06 
      -4.09757492e-07       3.95594836e-06      -6.99287289e-06 
       1.12318923e-07       3.95855153e-06      -6.99287383e-06 
       4.08524580e-07       3.95855184e-06      -6.99027173e-06 
      -1.18480444e-07       4.37756604e-06      -7.73329815e-06 
      -4.27817771e-07       4.37756571e-06      -7.73603591e-06 
       1.17192452e-07       4.38030464e-06      -7.73603694e-06 
       4.26529779e-07       4.38030497e-06      -7.73329918e-06 
      -1.18480444e-07       4.37756604e-06      -7.73329815e-06 
      -4.27817771e-07       4.37756571e-06      -7.73603591e-06 
       1.17192452e-07       4.38030464e-06      -7.73603694e-06 
       4.26529779e-07       4.38030497e-06      -7.73329918e-06 
      -1.23270356e-07       4.81723539e-06      -8.50783482e-06 
      -4.45401183e-07       4.81723503e-06      -8.51070824e-06 
       1.21927024e-07       4.82010972e-06      -8.51070936e-06 
       4.44057852e-07       4.82011008e-06      -8.50783594e-06 
      -1.23270356e-07       4.81723539e-06      -8.50783482e-06 
      -4.45401184e-07       4.81723503e-06      -8.51070824e-06 
       1.21927025e-07       4.82010972e-06      -8.51070936e-06 
       4.44057852e-07       4.82011008e-06      -8.50783594e-06 
      -1.27921583e-07       5.27450311e-06      -9.31304988e-06 
      -4.62527839e-07       5.27450272e-06      -9.31604296e-06 
       1.26542436e-07       5.27749717e-06      -9.31604417e-06 
       4.61148693e-07       5.27749756e-06      -9.31305109e-06 
      -1.27921583e-07       5.27450311e-06      -9.31304988e-06 
      -4.62527839e-07       5.27450272e-06      -9.31604296e-06 
       1.26542436e-07       5.27749717e-06      -9.31604417e-06 
       4.61148693e-07       5.27749756e-06      -9.31305109e-06 
      -1.32453273e-07       5.74893683e-06      -1.01481691e-05 
      -4.79236899e-07       5.74893641e-06      -1.01512819e-05 
       1.31037944e-07       5.75205063e-06      -1.01512832e-05 
       4.77821570e-07       5.75205105e-06      -1.01481704e-05 
      -1.32453273e-07       5.74893683e-06      -1.01481691e-05 
      -4.79236899e-07       5.74893641e-06      -1.01512819e-05 
       1.31037944e-07       5.75205063e-06      -1.01512832e-05 
       4.77821570e-07       5.75205105e-06      -1.01481704e-05 
      -1.36865424e-07       6.24012146e-06      -1.10124441e-05 
      -4.95528359e-07       6.24012101e-06      -1.10156765e-05 
       1.35413553e-07       6.24335500e-06      -1.10156779e-05 
       4.94076487e-07       6.24335545e-06      -1.10124454e-05 
      -1.36865424e-07       6.24012146e-06      -1.10124441e-05 
      -4.95528359e-07       6.24012101e-06      -1.10156765e-05 
       1.35413553e-07       6.24335500e-06      -1.10156779e-05 
       4.94076487e-07       6.24335545e-06      -1.10124454e-05 
      -1.41158032e-07       6.74764193e-06      -1.19051261e-05 
      -5.11402215e-07       6.74764145e-06      -1.19084782e-05 
       1.39669266e-07       6.75099521e-06      -1.19084797e-05 
       5.09913449e-07       6.75099569e-06      -1.19051276e-05 
      -1.41158032e-07       6.74764193e-06      -1.19051261e-05 
      -5.11402215e-07       6.74764145e-06      -1.19084782e-05 
       1.39669266e-07       6.75099521e-06      -1.19084797e-05 
       5.09913449e-07       6.75099569e-06      -1.19051276e-05 
      -1.45331091e-07       7.27108315e-06      -1.28254668e-05 
      -5.26858462e-07       7.27108264e-06      -1.28289385e-05 
       1.43805090e-07       7.27455617e-06      -1.28289401e-05 
       5.25332460e-07       7.27455668e-06      -1.28254683e-05 
      -1.45331091e-07       7.27108315e-06      -1.28254668e-05 
      -5.26858462e-07       7.27108264e-06      -1.28289385e-05 
       1.43805090e-07       7.27455617e-06      -1.28289401e-05 
       5.25332460e-07       7.27455668e-06      -1.28254683e-05 
      -1.49384597e-07       7.81003003e-06      -1.37727175e-05 
      -5.41897095e-07       7.81002949e-06      -1.37763089e-05 
       1.47821027e-07       7.81362279e-06      -1.37763106e-05 
       5.40333525e-07       7.81362333e-06      -1.37727192e-05 
      -1.49384597e-07       7.81003003e-06      -1.37727175e-05 
      -5.41897095e-07       7.81002949e-06      -1.37763089e-05 
       1.47821027e-07       7.81362279e-06      -1.37763106e-05 
       5.40333525e-07       7.81362333e-06      -1.37727192e-05 
      -1.53318545e-07       8.36406749e-06      -1.47461298e-05 
      -5.56518111e-07       8.36406692e-06      -1.47498408e-05 
       1.51717082e-07       8.36777999e-06      -1.47498426e-05 
       5.54916648e-07       8.36778055e-06      -1.47461315e-05 
      -1.53318545e-07       8.36406749e-06      -1.47461298e-05 
      -5.56518111e-07       8.36406692e-06      -1.47498408e-05 
       1.51717082e-07       8.36777999e-06      -1.47498426e-05 
       5.54916648e-07       8.36778055e-06      -1.47461315e-05 
      -1.57132930e-07       8.93278044e-06      -1.57449550e-05 
      -5.70721502e-07       8.93277985e-06      -1.57487858e-05 
       1.55493263e-07       8.93661268e-06      -1.57487876e-05 
       5.69081834e-07       8.93661327e-06      -1.57449569e-05 
      -1.57132930e-07       8.93278044e-06      -1.57449550e-05 
      -5.70721502e-07       8.93277985e-06      -1.57487858e-05 
       1.55493263e-07       8.93661268e-06      -1.57487876e-05 
       5.69081834e-07       8.93661327e-06      -1.57449569e-05 
      -1.60827748e-07       9.51575380e-06      -1.67684447e-05 
      -5.84507267e-07       9.51575318e-06      -1.67723952e-05 
       1.59149569e-07       9.51970578e-06      -1.67723971e-05 
       5.82829088e-07       9.51970640e-06      -1.67684467e-05 
      -1.60827748e-07       9.51575380e-06      -1.67684447e-05 
      -5.84507267e-07       9.51575318e-06      -1.67723952e-05 
       1.59149569e-07       9.51970578e-06      -1.67723971e-05 
       5.82829088e-07       9.51970640e-06      -1.67684467e-05 
      -1.64402996e-07       1.01125725e-05      -1.78158504e-05 
      -5.97875401e-07       1.01125718e-05      -1.78199205e-05 
       1.62686009e-07       1.01166442e-05      -1.78199225e-05 
       5.96158413e-07       1.01166449e-05      -1.78158524e-05 
      -1.64402996e-07       1.01125725e-05      -1.78158504e-05 
      -5.97875402e-07       1.01125718e-05      -1.78199205e-05 
       1.62686009e-07       1.01166442e-05      -1.78199225e-05 
       5.96158414e-07       1.01166449e-05      -1.78158524e-05 
      -1.67861702e-07       1.07228387e-05      -1.88864499e-05 
      -6.10848995e-07       1.07228380e-05      -1.88906237e-05 
       1.66118872e-07       1.07270142e-05      -1.88906258e-05 
       6.09106165e-07       1.07270149e-05      -1.88864520e-05 
      -1.67861702e-07       1.07228387e-05      -1.88864499e-05 
      -6.10848995e-07       1.07228380e-05      -1.88906237e-05 
       1.66118872e-07       1.07270142e-05      -1.88906258e-05 
       6.09106165e-07       1.07270149e-05      -1.88864520e-05 
      -1.71219424e-07       1.13461759e-05      -1.99795769e-05 
      -6.23463591e-07       1.13461752e-05      -1.99838544e-05 
       1.69450400e-07       1.13504552e-05      -1.99838565e-05 
       6.21694568e-07       1.13504559e-05      -1.99795791e-05 
      -1.71219424e-07       1.13461759e-05      -1.99795769e-05 
      -6.23463591e-07       1.13461752e-05      -1.99838544e-05 
       1.69450400e-07       1.13504552e-05      -1.99838565e-05 
       6.21694568e-07       1.13504559e-05      -1.99795791e-05 
      -1.74476154e-07       1.19822248e-05      -2.10945903e-05 
      -6.35719183e-07       1.19822241e-05      -2.10989714e-05 
       1.72680602e-07       1.19866078e-05      -2.10989737e-05 
       6.33923631e-07       1.19866085e-05      -2.10945925e-05 
      -1.74476154e-07       1.19822248e-05      -2.10945903e-05 
      -6.35719183e-07       1.19822241e-05      -2.10989714e-05 
       1.72680602e-07       1.19866078e-05      -2.10989737e-05 
       6.33923631e-07       1.19866085e-05      -2.10945925e-05 
      -1.77631893e-07       1.26306260e-05      -2.22308489e-05 
      -6.47615768e-07       1.26306252e-05      -2.22353337e-05 
       1.75809480e-07       1.26351128e-05      -2.22353361e-05 
       6.45793354e-07       1.26351135e-05      -2.22308513e-05 
      -1.77631893e-07       1.26306260e-05      -2.22308489e-05 
      -6.47615768e-07       1.26306252e-05      -2.22353337e-05 
       1.75809480e-07       1.26351128e-05      -2.22353361e-05 
       6.45793354e-07       1.26351135e-05      -2.22308513e-05 
      -1.80686633e-07       1.32910203e-05      -2.33877118e-05 
      -6.59153341e-07       1.32910195e-05      -2.33923003e-05 
       1.78837038e-07       1.32956108e-05      -2.33923028e-05 
       6.57303746e-07       1.32956116e-05      -2.33877143e-05 
      -1.80686633e-07       1.32910203e-05      -2.33877118e-05 
      -6.59153341e-07       1.32910195e-05      -2.33923003e-05 
       1.78837038e-07       1.32956108e-05      -2.33923028e-05 
       6.57303746e-07       1.32956116e-05      -2.33877143e-05 
      -1.83640369e-07       1.39630482e-05      -2.45645379e-05 
      -6.70331896e-07       1.39630474e-05      -2.45692301e-05 
       1.81763283e-07       1.39677425e-05      -2.45692326e-05 
       6.68454810e-07       1.39677433e-05      -2.45645404e-05 
      -1.83640369e-07       1.39630482e-05      -2.45645379e-05 
      -6.70331896e-07       1.39630474e-05      -2.45692301e-05 
       1.81763283e-07       1.39677425e-05      -2.45692326e-05 
       6.68454810e-07       1.39677433e-05      -2.45645404e-05 
      -1.86493096e-07       1.46463506e-05      -2.57606861e-05 
      -6.81151428e-07       1.46463497e-05      -2.57654820e-05 
       1.84588219e-07       1.46511486e-05      -2.57654846e-05 
       6.79246551e-07       1.46511494e-05      -2.57606887e-05 
      -1.86493096e-07       1.46463506e-05      -2.57606861e-05 
      -6.81151428e-07       1.46463497e-05      -2.57654820e-05 
       1.84588219e-07       1.46511486e-05      -2.57654846e-05 
       6.79246551e-07       1.46511494e-05      -2.57606887e-05 
      -1.89244808e-07       1.53405680e-05      -2.69755153e-05 
      -6.91611930e-07       1.53405671e-05      -2.69804149e-05 
       1.87311853e-07       1.53454698e-05      -2.69804176e-05 
       6.89678976e-07       1.53454707e-05      -2.69755180e-05 
      -1.89244808e-07       1.53405680e-05      -2.69755153e-05 
      -6.91611930e-07       1.53405671e-05      -2.69804149e-05 