# vtk DataFile Version 2.0
./output/onsasExample_BladeCantileverBeamPitch_windVel3DDynamic 3D/onsasExample_BladeCantileverBeamPitch_windVel3DDynamic 3D_0297.vtk
ASCII
DATASET UNSTRUCTURED_GRID

POINTS 800 float
       1.003863e-23      -7.180703e-02      -7.180703e-02 
      -2.920458e-24       7.180703e-02      -7.180703e-02 
      -1.003863e-23       7.180703e-02       7.180703e-02 
       2.920458e-24      -7.180703e-02       7.180703e-02 
       2.000000e-01      -7.180702e-02      -7.180706e-02 
       2.000000e-01       7.180705e-02      -7.180706e-02 
       2.000000e-01       7.180705e-02       7.180701e-02 
       2.000000e-01      -7.180702e-02       7.180701e-02 
       2.000000e-01      -7.180702e-02      -7.180706e-02 
       2.000000e-01       7.180705e-02      -7.180706e-02 
       2.000000e-01       7.180705e-02       7.180701e-02 
       2.000000e-01      -7.180702e-02       7.180701e-02 
       4.000000e-01      -7.180698e-02      -7.180713e-02 
       3.999999e-01       7.180709e-02      -7.180713e-02 
       4.000000e-01       7.180709e-02       7.180694e-02 
       4.000001e-01      -7.180698e-02       7.180694e-02 
       4.000000e-01      -7.180698e-02      -7.180713e-02 
       3.999999e-01       7.180709e-02      -7.180713e-02 
       4.000000e-01       7.180709e-02       7.180694e-02 
       4.000001e-01      -7.180698e-02       7.180694e-02 
       6.000000e-01      -7.180691e-02      -7.180724e-02 
       5.999999e-01       7.180715e-02      -7.180725e-02 
       6.000000e-01       7.180715e-02       7.180682e-02 
       6.000001e-01      -7.180691e-02       7.180682e-02 
       6.000000e-01      -7.180691e-02      -7.180724e-02 
       5.999999e-01       7.180715e-02      -7.180725e-02 
       6.000000e-01       7.180715e-02       7.180682e-02 
       6.000001e-01      -7.180691e-02       7.180682e-02 
       8.000000e-01      -7.180682e-02      -7.180741e-02 
       7.999999e-01       7.180725e-02      -7.180741e-02 
       8.000000e-01       7.180725e-02       7.180666e-02 
       8.000001e-01      -7.180682e-02       7.180666e-02 
       8.000000e-01      -7.180682e-02      -7.180741e-02 
       7.999999e-01       7.180725e-02      -7.180741e-02 
       8.000000e-01       7.180725e-02       7.180666e-02 
       8.000001e-01      -7.180682e-02       7.180666e-02 
       1.000000e+00      -7.180670e-02      -7.180761e-02 
       9.999999e-01       7.180736e-02      -7.180761e-02 
       1.000000e+00       7.180737e-02       7.180645e-02 
       1.000000e+00      -7.180670e-02       7.180645e-02 
       1.000000e+00      -7.180670e-02      -7.180761e-02 
       9.999999e-01       7.180736e-02      -7.180761e-02 
       1.000000e+00       7.180737e-02       7.180645e-02 
       1.000000e+00      -7.180670e-02       7.180645e-02 
       1.200000e+00      -7.180656e-02      -7.180786e-02 
       1.200000e+00       7.180751e-02      -7.180786e-02 
       1.200000e+00       7.180751e-02       7.180620e-02 
       1.200000e+00      -7.180656e-02       7.180620e-02 
       1.200000e+00      -7.180656e-02      -7.180786e-02 
       1.200000e+00       7.180751e-02      -7.180786e-02 
       1.200000e+00       7.180751e-02       7.180620e-02 
       1.200000e+00      -7.180656e-02       7.180620e-02 
       1.400000e+00      -7.180639e-02      -7.180815e-02 
       1.400000e+00       7.180767e-02      -7.180816e-02 
       1.400000e+00       7.180768e-02       7.180591e-02 
       1.400000e+00      -7.180639e-02       7.180591e-02 
       1.400000e+00      -7.180639e-02      -7.180815e-02 
       1.400000e+00       7.180767e-02      -7.180816e-02 
       1.400000e+00       7.180768e-02       7.180591e-02 
       1.400000e+00      -7.180639e-02       7.180591e-02 
       1.600000e+00      -7.180620e-02      -7.180849e-02 
       1.600000e+00       7.180787e-02      -7.180849e-02 
       1.600000e+00       7.180787e-02       7.180558e-02 
       1.600000e+00      -7.180620e-02       7.180558e-02 
       1.600000e+00      -7.180620e-02      -7.180849e-02 
       1.600000e+00       7.180787e-02      -7.180849e-02 
       1.600000e+00       7.180787e-02       7.180558e-02 
       1.600000e+00      -7.180620e-02       7.180558e-02 
       1.800000e+00      -7.180599e-02      -7.180886e-02 
       1.800000e+00       7.180808e-02      -7.180886e-02 
       1.800000e+00       7.180808e-02       7.180520e-02 
       1.800000e+00      -7.180598e-02       7.180520e-02 
       1.800000e+00      -7.180599e-02      -7.180886e-02 
       1.800000e+00       7.180808e-02      -7.180886e-02 
       1.800000e+00       7.180808e-02       7.180520e-02 
       1.800000e+00      -7.180598e-02       7.180520e-02 
       2.000000e+00      -7.180575e-02      -7.180927e-02 
       2.000000e+00       7.180832e-02      -7.180928e-02 
       2.000000e+00       7.180832e-02       7.180479e-02 
       2.000000e+00      -7.180575e-02       7.180479e-02 
       2.000000e+00      -7.180575e-02      -7.180927e-02 
       2.000000e+00       7.180832e-02      -7.180928e-02 
       2.000000e+00       7.180832e-02       7.180479e-02 
       2.000000e+00      -7.180575e-02       7.180479e-02 
       2.200000e+00      -7.180549e-02      -7.180973e-02 
       2.200000e+00       7.180858e-02      -7.180973e-02 
       2.200000e+00       7.180858e-02       7.180434e-02 
       2.200000e+00      -7.180549e-02       7.180434e-02 
       2.200000e+00      -7.180549e-02      -7.180973e-02 
       2.200000e+00       7.180858e-02      -7.180973e-02 
       2.200000e+00       7.180858e-02       7.180434e-02 
       2.200000e+00      -7.180549e-02       7.180434e-02 
       2.400000e+00      -7.180521e-02      -7.181021e-02 
       2.400000e+00       7.180886e-02      -7.181022e-02 
       2.400000e+00       7.180886e-02       7.180385e-02 
       2.400000e+00      -7.180521e-02       7.180385e-02 
       2.400000e+00      -7.180521e-02      -7.181021e-02 
       2.400000e+00       7.180886e-02      -7.181022e-02 
       2.400000e+00       7.180886e-02       7.180385e-02 
       2.400000e+00      -7.180521e-02       7.180385e-02 
       2.600000e+00      -7.180491e-02      -7.181074e-02 
       2.600000e+00       7.180916e-02      -7.181074e-02 
       2.600000e+00       7.180916e-02       7.180332e-02 
       2.600000e+00      -7.180491e-02       7.180333e-02 
       2.600000e+00      -7.180491e-02      -7.181074e-02 
       2.600000e+00       7.180916e-02      -7.181074e-02 
       2.600000e+00       7.180916e-02       7.180332e-02 
       2.600000e+00      -7.180491e-02       7.180333e-02 
       2.800000e+00      -7.180458e-02      -7.181130e-02 
       2.800000e+00       7.180948e-02      -7.181130e-02 
       2.800000e+00       7.180948e-02       7.180276e-02 
       2.800000e+00      -7.180458e-02       7.180276e-02 
       2.800000e+00      -7.180458e-02      -7.181130e-02 
       2.800000e+00       7.180948e-02      -7.181130e-02 
       2.800000e+00       7.180948e-02       7.180276e-02 
       2.800000e+00      -7.180458e-02       7.180276e-02 
       3.000000e+00      -7.180424e-02      -7.181190e-02 
       3.000000e+00       7.180982e-02      -7.181190e-02 
       3.000000e+00       7.180983e-02       7.180216e-02 
       3.000000e+00      -7.180424e-02       7.180217e-02 
       3.000000e+00      -7.180424e-02      -7.181190e-02 
       3.000000e+00       7.180982e-02      -7.181190e-02 
       3.000000e+00       7.180983e-02       7.180216e-02 
       3.000000e+00      -7.180424e-02       7.180217e-02 
       3.200000e+00      -7.180388e-02      -7.181253e-02 
       3.200000e+00       7.181019e-02      -7.181253e-02 
       3.200000e+00       7.181019e-02       7.180153e-02 
       3.200000e+00      -7.180388e-02       7.180154e-02 
       3.200000e+00      -7.180388e-02      -7.181253e-02 
       3.200000e+00       7.181019e-02      -7.181253e-02 
       3.200000e+00       7.181019e-02       7.180153e-02 
       3.200000e+00      -7.180388e-02       7.180154e-02 
       3.400000e+00      -7.180350e-02      -7.181319e-02 
       3.400000e+00       7.181057e-02      -7.181320e-02 
       3.400000e+00       7.181057e-02       7.180087e-02 
       3.400000e+00      -7.180349e-02       7.180087e-02 
       3.400000e+00      -7.180350e-02      -7.181319e-02 
       3.400000e+00       7.181057e-02      -7.181320e-02 
       3.400000e+00       7.181057e-02       7.180087e-02 
       3.400000e+00      -7.180349e-02       7.180087e-02 
       3.600000e+00      -7.180309e-02      -7.181389e-02 
       3.600000e+00       7.181097e-02      -7.181389e-02 
       3.600000e+00       7.181097e-02       7.180017e-02 
       3.600000e+00      -7.180309e-02       7.180017e-02 
       3.600000e+00      -7.180309e-02      -7.181389e-02 
       3.600000e+00       7.181097e-02      -7.181389e-02 
       3.600000e+00       7.181097e-02       7.180017e-02 
       3.600000e+00      -7.180309e-02       7.180017e-02 
       3.800000e+00      -7.180268e-02      -7.181462e-02 
       3.800000e+00       7.181139e-02      -7.181462e-02 
       3.800000e+00       7.181139e-02       7.179944e-02 
       3.800000e+00      -7.180267e-02       7.179945e-02 
       3.800000e+00      -7.180268e-02      -7.181462e-02 
       3.800000e+00       7.181139e-02      -7.181462e-02 
       3.800000e+00       7.181139e-02       7.179944e-02 
       3.800000e+00      -7.180267e-02       7.179945e-02 
       4.000000e+00      -7.180224e-02      -7.181538e-02 
       4.000000e+00       7.181183e-02      -7.181538e-02 
       4.000000e+00       7.181183e-02       7.179868e-02 
       4.000000e+00      -7.180223e-02       7.179869e-02 
       4.000000e+00      -7.180224e-02      -7.181538e-02 
       4.000000e+00       7.181183e-02      -7.181538e-02 
       4.000000e+00       7.181183e-02       7.179868e-02 
       4.000000e+00      -7.180223e-02       7.179869e-02 
       4.200000e+00      -7.180178e-02      -7.181617e-02 
[...]
POINT_DATA       800 
VECTORS Displacements float
       1.00386326e-23      -1.38777878e-17      -1.38777878e-17 
      -2.92045811e-24       2.77555756e-17      -1.38777878e-17 
      -1.00386326e-23       1.38777878e-17       1.38777878e-17 
       2.92045811e-24      -2.77555756e-17       1.38777878e-17 
      -7.35293412e-09       1.35604277e-08      -2.37799057e-08 
      -2.68743967e-08       1.35604264e-08      -2.39328767e-08 
       7.27210253e-09       1.37134020e-08      -2.39328807e-08 
       2.67935651e-08       1.37134033e-08      -2.37799097e-08 
      -7.35293412e-09       1.35604277e-08      -2.37799057e-08 
      -2.68743967e-08       1.35604264e-08      -2.39328767e-08 
       7.27210253e-09       1.37134020e-08      -2.39328807e-08 
       2.67935651e-08       1.37134033e-08      -2.37799097e-08 
      -1.45512196e-08       5.40433819e-08      -9.46340100e-08 
      -5.32157565e-08       5.40433768e-08      -9.49399475e-08 
       1.43894163e-08       5.43493325e-08      -9.49399634e-08 
       5.30539533e-08       5.43493377e-08      -9.46340259e-08 
      -1.45512196e-08       5.40433819e-08      -9.46340100e-08 
      -5.32157565e-08       5.40433768e-08      -9.49399475e-08 
       1.43894163e-08       5.43493325e-08      -9.49399634e-08 
       5.30539533e-08       5.43493377e-08      -9.46340259e-08 
      -2.15948551e-08       1.20921911e-07      -2.11604433e-07 
      -7.90240783e-08       1.20921900e-07      -2.12063333e-07 
       2.13519428e-08       1.21380840e-07      -2.12063368e-07 
       7.87811659e-08       1.21380851e-07      -2.11604468e-07 
      -2.15948551e-08       1.20921911e-07      -2.11604433e-07 
      -7.90240783e-08       1.20921900e-07      -2.12063333e-07 
       2.13519428e-08       1.21380840e-07      -2.12063368e-07 
       7.87811659e-08       1.21380851e-07      -2.11604468e-07 
      -2.84838392e-08       2.13669065e-07      -3.73733293e-07 
      -1.04299360e-07       2.13669045e-07      -3.74345152e-07 
       2.81596834e-08       2.14280973e-07      -3.74345213e-07 
       1.03975205e-07       2.14280993e-07      -3.73733354e-07 
      -2.84838392e-08       2.13669065e-07      -3.73733293e-07 
      -1.04299360e-07       2.13669045e-07      -3.74345152e-07 
       2.81596834e-08       2.14280973e-07      -3.74345213e-07 
       1.03975205e-07       2.14280993e-07      -3.73733354e-07 
      -3.52181705e-08       3.31757891e-07      -5.80062712e-07 
      -1.29041602e-07       3.31757860e-07      -5.80827525e-07 
       3.48126394e-08       3.32522780e-07      -5.80827618e-07 
       1.28636071e-07       3.32522811e-07      -5.80062805e-07 
      -3.52181705e-08       3.31757891e-07      -5.80062712e-07 
      -1.29041602e-07       3.31757860e-07      -5.80827525e-07 
       3.48126394e-08       3.32522780e-07      -5.80827618e-07 
       1.28636071e-07       3.32522811e-07      -5.80062805e-07 
      -4.17978476e-08       4.74661437e-07      -8.29634808e-07 
      -1.53250800e-07       4.74661394e-07      -8.30552572e-07 
       4.13108123e-08       4.75579309e-07      -8.30552704e-07 
       1.52763765e-07       4.75579353e-07      -8.29634940e-07 
      -4.17978476e-08       4.74661437e-07      -8.29634808e-07 
      -1.53250800e-07       4.74661394e-07      -8.30552572e-07 
       4.13108123e-08       4.75579309e-07      -8.30552704e-07 
       1.52763765e-07       4.75579353e-07      -8.29634940e-07 
      -4.82228688e-08       6.41852754e-07      -1.12149170e-06 
      -1.76926955e-07       6.41852696e-07      -1.12256241e-06 
       4.76542039e-08       6.42923610e-07      -1.12256259e-06 
       1.76358290e-07       6.42923667e-07      -1.12149188e-06 
      -4.82228688e-08       6.41852754e-07      -1.12149170e-06 
      -1.76926955e-07       6.41852696e-07      -1.12256241e-06 
       4.76542039e-08       6.42923610e-07      -1.12256259e-06 
       1.76358290e-07       6.42923667e-07      -1.12149188e-06 
      -5.44932330e-08       8.32804888e-07      -1.45467551e-06 
      -2.00070065e-07       8.32804814e-07      -1.45589917e-06 
       5.38428151e-08       8.34028729e-07      -1.45589939e-06 
       1.99419647e-07       8.34028803e-07      -1.45467574e-06 
      -5.44932330e-08       8.32804888e-07      -1.45467551e-06 
      -2.00070065e-07       8.32804814e-07      -1.45589917e-06 
       5.38428151e-08       8.34028729e-07      -1.45589939e-06 
       1.99419647e-07       8.34028803e-07      -1.45467574e-06 
      -6.06089390e-08       1.04699089e-06      -1.82822836e-06 
      -2.22680128e-07       1.04699080e-06      -1.82960496e-06 
       5.98766472e-08       1.04836772e-06      -1.82960524e-06 
       2.21947836e-07       1.04836781e-06      -1.82822864e-06 
      -6.06089390e-08       1.04699089e-06      -1.82822836e-06 
      -2.22680128e-07       1.04699080e-06      -1.82960496e-06 
       5.98766472e-08       1.04836772e-06      -1.82960524e-06 
       2.21947836e-07       1.04836781e-06      -1.82822864e-06 
      -6.65699844e-08       1.28388381e-06      -2.24119236e-06 
      -2.44757142e-07       1.28388370e-06      -2.24272190e-06 
       6.57557022e-08       1.28541362e-06      -2.24272224e-06 
       2.43942860e-07       1.28541373e-06      -2.24119270e-06 
      -6.65699846e-08       1.28388381e-06      -2.24119236e-06 
      -2.44757143e-07       1.28388370e-06      -2.24272190e-06 
       6.57557022e-08       1.28541362e-06      -2.24272224e-06 
       2.43942860e-07       1.28541373e-06      -2.24119270e-06 
      -7.23724494e-08       1.54297387e-06      -2.69263604e-06 
      -2.66317083e-07       1.54297374e-06      -2.69430247e-06 
       7.15038810e-08       1.54464063e-06      -2.69430287e-06 
       2.65448514e-07       1.54464076e-06      -2.69263643e-06 
      -7.23724494e-08       1.54297387e-06      -2.69263604e-06 
      -2.66317083e-07       1.54297374e-06      -2.69430247e-06 
       7.15038810e-08       1.54464063e-06      -2.69430287e-06 
       2.65448514e-07       1.54464076e-06      -2.69263643e-06 
      -7.80406011e-08       1.82377281e-06      -3.18168700e-06 
      -2.87404761e-07       1.82377265e-06      -3.18349032e-06 
       7.71174413e-08       1.82557651e-06      -3.18349079e-06 
       2.86481601e-07       1.82557666e-06      -3.18168746e-06 
      -7.80406011e-08       1.82377281e-06      -3.18168700e-06 
      -2.87404761e-07       1.82377265e-06      -3.18349032e-06 
       7.71174413e-08       1.82557651e-06      -3.18349079e-06 
       2.86481601e-07       1.82557666e-06      -3.18168746e-06 
      -8.35744371e-08       2.12580999e-06      -3.70750009e-06 
      -3.08020173e-07       2.12580981e-06      -3.70944031e-06 
       8.25963862e-08       2.12775064e-06      -3.70944084e-06 
       3.07042123e-07       2.12775081e-06      -3.70750063e-06 
      -8.35744371e-08       2.12580999e-06      -3.70750009e-06 
      -3.08020173e-07       2.12580981e-06      -3.70944031e-06 
       8.25963862e-08       2.12775064e-06      -3.70944084e-06 
       3.07042123e-07       2.12775081e-06      -3.70750063e-06 
      -8.89739531e-08       2.44861477e-06      -4.26923017e-06 
      -3.28163317e-07       2.44861457e-06      -4.27130727e-06 
       8.79407196e-08       2.45069237e-06      -4.27130788e-06 
       3.27130083e-07       2.45069257e-06      -4.26923077e-06 
      -8.89739531e-08       2.44861477e-06      -4.26923017e-06 
      -3.28163317e-07       2.44861457e-06      -4.27130727e-06 
       8.79407196e-08       2.45069237e-06      -4.27130788e-06 
       3.27130083e-07       2.45069257e-06      -4.26923077e-06 
      -9.42391463e-08       2.79171652e-06      -4.86603207e-06 
      -3.47834188e-07       2.79171630e-06      -4.86824606e-06 
       9.31504438e-08       2.79393107e-06      -4.86824674e-06 
       3.46745486e-07       2.79393129e-06      -4.86603275e-06 
      -9.42391463e-08       2.79171652e-06      -4.86603207e-06 
      -3.47834188e-07       2.79171630e-06      -4.86824606e-06 
       9.31504438e-08       2.79393107e-06      -4.86824674e-06 
       3.46745486e-07       2.79393129e-06      -4.86603275e-06 
      -9.93700136e-08       3.15464461e-06      -5.49706064e-06 
      -3.67032783e-07       3.15464436e-06      -5.49941151e-06 
       9.82255637e-08       3.15699610e-06      -5.49941227e-06 
       3.65888333e-07       3.15699635e-06      -5.49706139e-06 
      -9.93700136e-08       3.15464461e-06      -5.49706064e-06 
      -3.67032783e-07       3.15464436e-06      -5.49941151e-06 
       9.82255637e-08       3.15699610e-06      -5.49941227e-06 
       3.65888333e-07       3.15699635e-06      -5.49706139e-06 
      -1.04366550e-07       3.53692840e-06      -6.16147072e-06 
      -3.85759099e-07       3.53692812e-06      -6.16395848e-06 
       1.03166081e-07       3.53941684e-06      -6.16395931e-06 
       3.84558631e-07       3.53941711e-06      -6.16147155e-06 
      -1.04366550e-07       3.53692840e-06      -6.16147072e-06 
      -3.85759099e-07       3.53692812e-06      -6.16395848e-06 
       1.03166081e-07       3.53941684e-06      -6.16395931e-06 
       3.84558631e-07       3.53941711e-06      -6.16147155e-06 
      -1.09228754e-07       3.93809725e-06      -6.85841716e-06 
      -4.04013133e-07       3.93809694e-06      -6.86104180e-06 
       1.07972002e-07       3.94072264e-06      -6.86104271e-06 
       4.02756380e-07       3.94072294e-06      -6.85841807e-06 
      -1.09228754e-07       3.93809725e-06      -6.85841716e-06 
      -4.04013133e-07       3.93809694e-06      -6.86104180e-06 
       1.07972002e-07       3.94072264e-06      -6.86104271e-06 
       4.02756380e-07       3.94072294e-06      -6.85841807e-06 
      -1.13956621e-07       4.35768052e-06      -7.58705480e-06 
      -4.21794879e-07       4.35768019e-06      -7.58981633e-06 
       1.12643326e-07       4.36044286e-06      -7.58981732e-06 
       4.20481585e-07       4.36044319e-06      -7.58705580e-06 
      -1.13956621e-07       4.35768052e-06      -7.58705480e-06 
      -4.21794879e-07       4.35768019e-06      -7.58981633e-06 
       1.12643326e-07       4.36044286e-06      -7.58981732e-06 
       4.20481585e-07       4.36044319e-06      -7.58705580e-06 
      -1.18550147e-07       4.79520759e-06      -8.34653850e-06 
      -4.39104337e-07       4.79520723e-06      -8.34943690e-06 
       1.17180059e-07       4.79810688e-06      -8.34943798e-06 
       4.37734249e-07       4.79810724e-06      -8.34653957e-06 
      -1.18550147e-07       4.79520759e-06      -8.34653850e-06 
      -4.39104337e-07       4.79520723e-06      -8.34943690e-06 
       1.17180059e-07       4.79810688e-06      -8.34943798e-06 
       4.37734249e-07       4.79810724e-06      -8.34653957e-06 
      -1.23010118e-07       5.25022530e-06      -9.13605061e-06 
      -4.55962630e-07       5.25022491e-06      -9.13906982e-06 
       1.21602450e-07       5.25324547e-06      -9.13907098e-06 
       4.54554963e-07       5.25324585e-06      -9.13605177e-06 
      -1.23010118e-07       5.25022530e-06      -9.13605061e-06 
      -4.55962630e-07       5.25022491e-06      -9.13906982e-06 
       1.21602450e-07       5.25324547e-06      -9.13907098e-06 
       4.54554963e-07       5.25324585e-06      -9.13605177e-06 
      -1.27355637e-07       5.72230215e-06      -9.95483199e-06 
      -4.72409153e-07       5.72230173e-06      -9.95797201e-06 
       1.25910032e-07       5.72544319e-06      -9.95797325e-06 
       4.70963547e-07       5.72544361e-06      -9.95483323e-06 
      -1.27355637e-07       5.72230215e-06      -9.95483199e-06 
      -4.72409153e-07       5.72230173e-06      -9.95797201e-06 
       1.25910032e-07       5.72544319e-06      -9.95797325e-06 
       4.70963547e-07       5.72544361e-06      -9.95483323e-06 
      -1.31586702e-07       6.21102408e-06      -1.08021493e-05 
      -4.88443898e-07       6.21102364e-06      -1.08054101e-05 
       1.30102812e-07       6.21428600e-06      -1.08054115e-05 
       4.86960008e-07       6.21428645e-06      -1.08021506e-05 
      -1.31586702e-07       6.21102408e-06      -1.08021493e-05 
      -4.88443898e-07       6.21102364e-06      -1.08054101e-05 
       1.30102812e-07       6.21428600e-06      -1.08054115e-05 
       4.86960008e-07       6.21428645e-06      -1.08021506e-05 
      -1.35703306e-07       6.71597704e-06      -1.16772693e-05 
      -5.04066864e-07       6.71597657e-06      -1.16806509e-05 
       1.34180793e-07       6.71935984e-06      -1.16806523e-05 
       5.02544350e-07       6.71936031e-06      -1.16772707e-05 
      -1.35703306e-07       6.71597704e-06      -1.16772693e-05 
      -5.04066864e-07       6.71597657e-06      -1.16806509e-05 
       1.34180793e-07       6.71935984e-06      -1.16806523e-05 
       5.02544350e-07       6.71936031e-06      -1.16772707e-05 
      -1.39705447e-07       7.23674698e-06      -1.25794585e-05 
      -5.19278045e-07       7.23674648e-06      -1.25829609e-05 
       1.38143979e-07       7.24025065e-06      -1.25829624e-05 
       5.17716577e-07       7.24025115e-06      -1.25794600e-05 
      -1.39705447e-07       7.23674698e-06      -1.25794585e-05 
      -5.19278045e-07       7.23674648e-06      -1.25829609e-05 
       1.38143979e-07       7.24025065e-06      -1.25829624e-05 
       5.17716577e-07       7.24025115e-06      -1.25794600e-05 
      -1.43593121e-07       7.77291983e-06      -1.35079837e-05 
      -5.34077437e-07       7.77291930e-06      -1.35116070e-05 
       1.41992375e-07       7.77654438e-06      -1.35116085e-05 
       5.32476693e-07       7.77654492e-06      -1.35079853e-05 
      -1.43593121e-07       7.77291983e-06      -1.35079837e-05 
      -5.34077437e-07       7.77291930e-06      -1.35116070e-05 
       1.41992375e-07       7.77654438e-06      -1.35116085e-05 
       5.32476693e-07       7.77654492e-06      -1.35079853e-05 
      -1.47366320e-07       8.32408155e-06      -1.44621116e-05 
      -5.48465037e-07       8.32408099e-06      -1.44658556e-05 
       1.45725987e-07       8.32782698e-06      -1.44658573e-05 
       5.46824703e-07       8.32782754e-06      -1.44621132e-05 
      -1.47366320e-07       8.32408155e-06      -1.44621116e-05 
      -5.48465037e-07       8.32408099e-06      -1.44658556e-05 
       1.45725987e-07       8.32782698e-06      -1.44658573e-05 
       5.46824703e-07       8.32782754e-06      -1.44621132e-05 
      -1.51025041e-07       8.88981807e-06      -1.54411087e-05 
      -5.62440837e-07       8.88981749e-06      -1.54449736e-05 
       1.49344817e-07       8.89368438e-06      -1.54449754e-05 
       5.60760613e-07       8.89368497e-06      -1.54411105e-05 
      -1.51025041e-07       8.88981807e-06      -1.54411087e-05 
      -5.62440837e-07       8.88981749e-06      -1.54449736e-05 
       1.49344817e-07       8.89368438e-06      -1.54449754e-05 
       5.60760613e-07       8.89368497e-06      -1.54411105e-05 
      -1.54569283e-07       9.46971535e-06      -1.64442419e-05 
      -5.76004836e-07       9.46971474e-06      -1.64482276e-05 
       1.52848871e-07       9.47370254e-06      -1.64482294e-05 
       5.74284424e-07       9.47370316e-06      -1.64442438e-05 
      -1.54569283e-07       9.46971535e-06      -1.64442419e-05 
      -5.76004836e-07       9.46971474e-06      -1.64482276e-05 
       1.52848871e-07       9.47370254e-06      -1.64482294e-05 
       5.74284424e-07       9.47370316e-06      -1.64442438e-05 
      -1.57999038e-07       1.00633593e-05      -1.74707778e-05 
      -5.89157028e-07       1.00633587e-05      -1.74748842e-05 
       1.56238153e-07       1.00674674e-05      -1.74748862e-05 
       5.87396142e-07       1.00674680e-05      -1.74707797e-05 
      -1.57999037e-07       1.00633593e-05      -1.74707778e-05 
      -5.89157028e-07       1.00633587e-05      -1.74748842e-05 
       1.56238152e-07       1.00674674e-05      -1.74748862e-05 
       5.87396143e-07       1.00674680e-05      -1.74707797e-05 
      -1.61317976e-07       1.06703535e-05      -1.85200104e-05 
      -6.01921485e-07       1.06703528e-05      -1.85242216e-05 
       1.59529412e-07       1.06745664e-05      -1.85242236e-05 
       6.00132921e-07       1.06745670e-05      -1.85200124e-05 
      -1.61317976e-07       1.06703535e-05      -1.85200104e-05 
      -6.01921485e-07       1.06703528e-05      -1.85242216e-05 
       1.59529412e-07       1.06745664e-05      -1.85242236e-05 
       6.00132921e-07       1.06745670e-05      -1.85200124e-05 
      -1.64541156e-07       1.12903229e-05      -1.95912901e-05 
      -6.14333322e-07       1.12903222e-05      -1.95956060e-05 
       1.62724575e-07       1.12946405e-05      -1.95956081e-05 
       6.12516741e-07       1.12946412e-05      -1.95912922e-05 
      -1.64541156e-07       1.12903229e-05      -1.95912901e-05 
      -6.14333322e-07       1.12903222e-05      -1.95956060e-05 
       1.62724575e-07       1.12946405e-05      -1.95956081e-05 
       6.12516741e-07       1.12946412e-05      -1.95912922e-05 
      -1.67668571e-07       1.19229097e-05      -2.06839920e-05 
      -6.26392532e-07       1.19229089e-05      -2.06884126e-05 
       1.65823648e-07       1.19273321e-05      -2.06884148e-05 
       6.24547609e-07       1.19273328e-05      -2.06839942e-05 
      -1.67668571e-07       1.19229097e-05      -2.06839920e-05 
      -6.26392532e-07       1.19229089e-05      -2.06884126e-05 
       1.65823648e-07       1.19273321e-05      -2.06884148e-05 
       6.24547609e-07       1.19273328e-05      -2.06839942e-05 
      -1.70700218e-07       1.25677562e-05      -2.17974912e-05 
      -6.38099113e-07       1.25677555e-05      -2.18020165e-05 
       1.68826633e-07       1.25722835e-05      -2.18020188e-05 
       6.36225527e-07       1.25722842e-05      -2.17974935e-05 
      -1.70700218e-07       1.25677562e-05      -2.17974912e-05 
      -6.38099113e-07       1.25677555e-05      -2.18020165e-05 
       1.68826633e-07       1.25722835e-05      -2.18020188e-05 
       6.36225527e-07       1.25722842e-05      -2.17974935e-05 
      -1.73636092e-07       1.32245048e-05      -2.29311628e-05 
      -6.49453058e-07       1.32245041e-05      -2.29357929e-05 
       1.71733536e-07       1.32291368e-05      -2.29357952e-05 
       6.47550501e-07       1.32291376e-05      -2.29311652e-05 
      -1.73636092e-07       1.32245048e-05      -2.29311628e-05 
      -6.49453058e-07       1.32245041e-05      -2.29357929e-05 
       1.71733536e-07       1.32291368e-05      -2.29357952e-05 
       6.47550501e-07       1.32291376e-05      -2.29311652e-05 
      -1.76476189e-07       1.38927978e-05      -2.40843819e-05 
      -6.60454364e-07       1.38927970e-05      -2.40891167e-05 
       1.74544361e-07       1.38975346e-05      -2.40891192e-05 
       6.58522537e-07       1.38975354e-05      -2.40843844e-05 
      -1.76476189e-07       1.38927978e-05      -2.40843819e-05 
      -6.60454364e-07       1.38927970e-05      -2.40891167e-05 
       1.74544361e-07       1.38975346e-05      -2.40891192e-05 
       6.58522537e-07       1.38975354e-05      -2.40843844e-05 
      -1.79220503e-07       1.45722773e-05      -2.52565237e-05 
      -6.71103026e-07       1.45722765e-05      -2.52613632e-05 
       1.77259115e-07       1.45771189e-05      -2.52613657e-05 
       6.69141638e-07       1.45771197e-05      -2.52565262e-05 
      -1.79220503e-07       1.45722773e-05      -2.52565237e-05 
      -6.71103026e-07       1.45722765e-05      -2.52613632e-05 
       1.77259115e-07       1.45771189e-05      -2.52613657e-05 
       6.69141638e-07       1.45771197e-05      -2.52565262e-05 
      -1.81869028e-07       1.52625858e-05      -2.64469632e-05 
      -6.81399037e-07       1.52625849e-05      -2.64519074e-05 
       1.79877801e-07       1.52675321e-05      -2.64519100e-05 
       6.79407810e-07       1.52675330e-05      -2.64469658e-05 
      -1.81869028e-07       1.52625858e-05      -2.64469632e-05 
      -6.81399037e-07       1.52625849e-05      -2.64519074e-05 