# vtk DataFile Version 2.0
./output/onsasExample_BladeCantileverBeamPitch_windVel3DDynamic 3D/onsasExample_BladeCantileverBeamPitch_windVel3DDynamic 3D_0287.vtk
ASCII
DATASET UNSTRUCTURED_GRID

POINTS 800 float
      -3.065928e-23      -7.180703e-02      -7.180703e-02 
      -1.708737e-23       7.180703e-02      -7.180703e-02 
       3.065928e-23       7.180703e-02       7.180703e-02 
       1.708737e-23      -7.180703e-02       7.180703e-02 
       2.000000e-01      -7.180702e-02      -7.180706e-02 
       2.000000e-01       7.180705e-02      -7.180706e-02 
       2.000000e-01       7.180705e-02       7.180701e-02 
       2.000000e-01      -7.180702e-02       7.180701e-02 
       2.000000e-01      -7.180702e-02      -7.180706e-02 
       2.000000e-01       7.180705e-02      -7.180706e-02 
       2.000000e-01       7.180705e-02       7.180701e-02 
       2.000000e-01      -7.180702e-02       7.180701e-02 
       4.000000e-01      -7.180698e-02      -7.180713e-02 
       3.999999e-01       7.180709e-02      -7.180713e-02 
       4.000000e-01       7.180709e-02       7.180694e-02 
       4.000001e-01      -7.180698e-02       7.180694e-02 
       4.000000e-01      -7.180698e-02      -7.180713e-02 
       3.999999e-01       7.180709e-02      -7.180713e-02 
       4.000000e-01       7.180709e-02       7.180694e-02 
       4.000001e-01      -7.180698e-02       7.180694e-02 
       6.000000e-01      -7.180691e-02      -7.180724e-02 
       5.999999e-01       7.180715e-02      -7.180724e-02 
       6.000000e-01       7.180715e-02       7.180682e-02 
       6.000001e-01      -7.180691e-02       7.180682e-02 
       6.000000e-01      -7.180691e-02      -7.180724e-02 
       5.999999e-01       7.180715e-02      -7.180724e-02 
       6.000000e-01       7.180715e-02       7.180682e-02 
       6.000001e-01      -7.180691e-02       7.180682e-02 
       8.000000e-01      -7.180682e-02      -7.180741e-02 
       7.999999e-01       7.180725e-02      -7.180741e-02 
       8.000000e-01       7.180725e-02       7.180666e-02 
       8.000001e-01      -7.180682e-02       7.180666e-02 
       8.000000e-01      -7.180682e-02      -7.180741e-02 
       7.999999e-01       7.180725e-02      -7.180741e-02 
       8.000000e-01       7.180725e-02       7.180666e-02 
       8.000001e-01      -7.180682e-02       7.180666e-02 
       1.000000e+00      -7.180670e-02      -7.180761e-02 
       9.999999e-01       7.180736e-02      -7.180761e-02 
       1.000000e+00       7.180737e-02       7.180645e-02 
       1.000000e+00      -7.180670e-02       7.180645e-02 
       1.000000e+00      -7.180670e-02      -7.180761e-02 
       9.999999e-01       7.180736e-02      -7.180761e-02 
       1.000000e+00       7.180737e-02       7.180645e-02 
       1.000000e+00      -7.180670e-02       7.180645e-02 
       1.200000e+00      -7.180656e-02      -7.180786e-02 
       1.200000e+00       7.180751e-02      -7.180786e-02 
       1.200000e+00       7.180751e-02       7.180620e-02 
       1.200000e+00      -7.180656e-02       7.180621e-02 
       1.200000e+00      -7.180656e-02      -7.180786e-02 
       1.200000e+00       7.180751e-02      -7.180786e-02 
       1.200000e+00       7.180751e-02       7.180620e-02 
       1.200000e+00      -7.180656e-02       7.180621e-02 
       1.400000e+00      -7.180639e-02      -7.180815e-02 
       1.400000e+00       7.180767e-02      -7.180815e-02 
       1.400000e+00       7.180768e-02       7.180591e-02 
       1.400000e+00      -7.180639e-02       7.180591e-02 
       1.400000e+00      -7.180639e-02      -7.180815e-02 
       1.400000e+00       7.180767e-02      -7.180815e-02 
       1.400000e+00       7.180768e-02       7.180591e-02 
       1.400000e+00      -7.180639e-02       7.180591e-02 
       1.600000e+00      -7.180620e-02      -7.180848e-02 
       1.600000e+00       7.180787e-02      -7.180849e-02 
       1.600000e+00       7.180787e-02       7.180558e-02 
       1.600000e+00      -7.180620e-02       7.180558e-02 
       1.600000e+00      -7.180620e-02      -7.180848e-02 
       1.600000e+00       7.180787e-02      -7.180849e-02 
       1.600000e+00       7.180787e-02       7.180558e-02 
       1.600000e+00      -7.180620e-02       7.180558e-02 
       1.800000e+00      -7.180599e-02      -7.180886e-02 
       1.800000e+00       7.180808e-02      -7.180886e-02 
       1.800000e+00       7.180808e-02       7.180521e-02 
       1.800000e+00      -7.180599e-02       7.180521e-02 
       1.800000e+00      -7.180599e-02      -7.180886e-02 
       1.800000e+00       7.180808e-02      -7.180886e-02 
       1.800000e+00       7.180808e-02       7.180521e-02 
       1.800000e+00      -7.180599e-02       7.180521e-02 
       2.000000e+00      -7.180575e-02      -7.180927e-02 
       2.000000e+00       7.180832e-02      -7.180927e-02 
       2.000000e+00       7.180832e-02       7.180480e-02 
       2.000000e+00      -7.180575e-02       7.180480e-02 
       2.000000e+00      -7.180575e-02      -7.180927e-02 
       2.000000e+00       7.180832e-02      -7.180927e-02 
       2.000000e+00       7.180832e-02       7.180480e-02 
       2.000000e+00      -7.180575e-02       7.180480e-02 
       2.200000e+00      -7.180549e-02      -7.180972e-02 
       2.200000e+00       7.180857e-02      -7.180972e-02 
       2.200000e+00       7.180858e-02       7.180435e-02 
       2.200000e+00      -7.180549e-02       7.180435e-02 
       2.200000e+00      -7.180549e-02      -7.180972e-02 
       2.200000e+00       7.180857e-02      -7.180972e-02 
       2.200000e+00       7.180858e-02       7.180435e-02 
       2.200000e+00      -7.180549e-02       7.180435e-02 
       2.400000e+00      -7.180521e-02      -7.181021e-02 
       2.400000e+00       7.180886e-02      -7.181021e-02 
       2.400000e+00       7.180886e-02       7.180386e-02 
       2.400000e+00      -7.180521e-02       7.180386e-02 
       2.400000e+00      -7.180521e-02      -7.181021e-02 
       2.400000e+00       7.180886e-02      -7.181021e-02 
       2.400000e+00       7.180886e-02       7.180386e-02 
       2.400000e+00      -7.180521e-02       7.180386e-02 
       2.600000e+00      -7.180491e-02      -7.181073e-02 
       2.600000e+00       7.180916e-02      -7.181073e-02 
       2.600000e+00       7.180916e-02       7.180333e-02 
       2.600000e+00      -7.180491e-02       7.180333e-02 
       2.600000e+00      -7.180491e-02      -7.181073e-02 
       2.600000e+00       7.180916e-02      -7.181073e-02 
       2.600000e+00       7.180916e-02       7.180333e-02 
       2.600000e+00      -7.180491e-02       7.180333e-02 
       2.800000e+00      -7.180459e-02      -7.181129e-02 
       2.800000e+00       7.180948e-02      -7.181129e-02 
       2.800000e+00       7.180948e-02       7.180277e-02 
       2.800000e+00      -7.180458e-02       7.180277e-02 
       2.800000e+00      -7.180459e-02      -7.181129e-02 
       2.800000e+00       7.180948e-02      -7.181129e-02 
       2.800000e+00       7.180948e-02       7.180277e-02 
       2.800000e+00      -7.180458e-02       7.180277e-02 
       3.000000e+00      -7.180424e-02      -7.181189e-02 
       3.000000e+00       7.180982e-02      -7.181189e-02 
       3.000000e+00       7.180982e-02       7.180218e-02 
       3.000000e+00      -7.180424e-02       7.180218e-02 
       3.000000e+00      -7.180424e-02      -7.181189e-02 
       3.000000e+00       7.180982e-02      -7.181189e-02 
       3.000000e+00       7.180982e-02       7.180218e-02 
       3.000000e+00      -7.180424e-02       7.180218e-02 
       3.200000e+00      -7.180388e-02      -7.181252e-02 
       3.200000e+00       7.181019e-02      -7.181252e-02 
       3.200000e+00       7.181019e-02       7.180155e-02 
       3.200000e+00      -7.180388e-02       7.180155e-02 
       3.200000e+00      -7.180388e-02      -7.181252e-02 
       3.200000e+00       7.181019e-02      -7.181252e-02 
       3.200000e+00       7.181019e-02       7.180155e-02 
       3.200000e+00      -7.180388e-02       7.180155e-02 
       3.400000e+00      -7.180350e-02      -7.181318e-02 
       3.400000e+00       7.181057e-02      -7.181318e-02 
       3.400000e+00       7.181057e-02       7.180088e-02 
       3.400000e+00      -7.180350e-02       7.180089e-02 
       3.400000e+00      -7.180350e-02      -7.181318e-02 
       3.400000e+00       7.181057e-02      -7.181318e-02 
       3.400000e+00       7.181057e-02       7.180088e-02 
       3.400000e+00      -7.180350e-02       7.180089e-02 
       3.600000e+00      -7.180310e-02      -7.181387e-02 
       3.600000e+00       7.181097e-02      -7.181388e-02 
       3.600000e+00       7.181097e-02       7.180019e-02 
       3.600000e+00      -7.180310e-02       7.180019e-02 
       3.600000e+00      -7.180310e-02      -7.181387e-02 
       3.600000e+00       7.181097e-02      -7.181388e-02 
       3.600000e+00       7.181097e-02       7.180019e-02 
       3.600000e+00      -7.180310e-02       7.180019e-02 
       3.800000e+00      -7.180268e-02      -7.181460e-02 
       3.800000e+00       7.181139e-02      -7.181460e-02 
       3.800000e+00       7.181139e-02       7.179946e-02 
       3.800000e+00      -7.180268e-02       7.179946e-02 
       3.800000e+00      -7.180268e-02      -7.181460e-02 
       3.800000e+00       7.181139e-02      -7.181460e-02 
       3.800000e+00       7.181139e-02       7.179946e-02 
       3.800000e+00      -7.180268e-02       7.179946e-02 
       4.000000e+00      -7.180224e-02      -7.181536e-02 
       4.000000e+00       7.181182e-02      -7.181536e-02 
       4.000000e+00       7.181183e-02       7.179870e-02 
       4.000000e+00      -7.180224e-02       7.179871e-02 
       4.000000e+00      -7.180224e-02      -7.181536e-02 
       4.000000e+00       7.181182e-02      -7.181536e-02 
       4.000000e+00       7.181183e-02       7.179870e-02 
       4.000000e+00      -7.180224e-02       7.179871e-02 
       4.200000e+00      -7.180179e-02      -7.181615e-02 
[...]
POINT_DATA       800 
VECTORS Displacements float
      -3.06592806e-23       0.00000000e+00       0.00000000e+00 
      -1.70873656e-23       0.00000000e+00       0.00000000e+00 
       3.06592806e-23       0.00000000e+00       0.00000000e+00 
       1.70873656e-23       0.00000000e+00       0.00000000e+00 
      -7.32052366e-09       1.35501161e-08      -2.37255615e-08 
      -2.68269922e-08       1.35501148e-08      -2.38782689e-08 
       7.24140803e-09       1.37028268e-08      -2.38782729e-08 
       2.67478766e-08       1.37028281e-08      -2.37255656e-08 
      -7.32052366e-09       1.35501161e-08      -2.37255615e-08 
      -2.68269922e-08       1.35501148e-08      -2.38782689e-08 
       7.24140803e-09       1.37028268e-08      -2.38782729e-08 
       2.67478766e-08       1.37028281e-08      -2.37255656e-08 
      -1.44867948e-08       5.40018953e-08      -9.44171288e-08 
      -5.31213689e-08       5.40018901e-08      -9.47225391e-08 
       1.43284239e-08       5.43073185e-08      -9.47225549e-08 
       5.29629979e-08       5.43073237e-08      -9.44171446e-08 
      -1.44867948e-08       5.40018953e-08      -9.44171288e-08 
      -5.31213689e-08       5.40018901e-08      -9.47225391e-08 
       1.43284239e-08       5.43073185e-08      -9.47225549e-08 
       5.29629979e-08       5.43073237e-08      -9.44171446e-08 
      -2.14988120e-08       1.20828421e-07      -2.11117960e-07 
      -7.88831285e-08       1.20828410e-07      -2.11576069e-07 
       2.12610490e-08       1.21286559e-07      -2.11576104e-07 
       7.86453656e-08       1.21286570e-07      -2.11117995e-07 
      -2.14988120e-08       1.20828421e-07      -2.11117960e-07 
      -7.88831285e-08       1.20828410e-07      -2.11576069e-07 
       2.12610490e-08       1.21286559e-07      -2.11576104e-07 
       7.86453656e-08       1.21286570e-07      -2.11117995e-07 
      -2.83565738e-08       2.13502777e-07      -3.72871315e-07 
      -1.04112269e-07       2.13502757e-07      -3.73482119e-07 
       2.80392849e-08       2.14113631e-07      -3.73482179e-07 
       1.03794981e-07       2.14113651e-07      -3.72871376e-07 
      -2.83565738e-08       2.13502777e-07      -3.72871315e-07 
      -1.04112269e-07       2.13502757e-07      -3.73482119e-07 
       2.80392849e-08       2.14113631e-07      -3.73482179e-07 
       1.03794981e-07       2.14113651e-07      -3.72871376e-07 
      -3.50600786e-08       3.31498047e-07      -5.78720450e-07 
      -1.28808791e-07       3.31498017e-07      -5.79483945e-07 
       3.46631326e-08       3.32261618e-07      -5.79484038e-07 
       1.28411845e-07       3.32261649e-07      -5.78720543e-07 
      -3.50600786e-08       3.31498047e-07      -5.78720450e-07 
      -1.28808791e-07       3.31498017e-07      -5.79483945e-07 
       3.46631326e-08       3.32261618e-07      -5.79484038e-07 
       1.28411845e-07       3.32261649e-07      -5.78720543e-07 
      -4.16093255e-08       4.74287315e-07      -8.27708626e-07 
      -1.52972691e-07       4.74287272e-07      -8.28624808e-07 
       4.11325938e-08       4.75203605e-07      -8.28624939e-07 
       1.52495959e-07       4.75203648e-07      -8.27708757e-07 
      -4.16093255e-08       4.74287315e-07      -8.27708626e-07 
      -1.52972691e-07       4.74287272e-07      -8.28624808e-07 
       4.11325938e-08       4.75203605e-07      -8.28624939e-07 
       1.52495959e-07       4.75203648e-07      -8.27708757e-07 
      -4.80043125e-08       6.41343664e-07      -1.11887910e-06 
      -1.76603968e-07       6.41343606e-07      -1.11994797e-06 
       4.74476700e-08       6.42412674e-07      -1.11994814e-06 
       1.76047326e-07       6.42412731e-07      -1.11887927e-06 
      -4.80043125e-08       6.41343664e-07      -1.11887910e-06 
      -1.76603968e-07       6.41343606e-07      -1.11994797e-06 
       4.74476700e-08       6.42412674e-07      -1.11994814e-06 
       1.76047326e-07       6.42412731e-07      -1.11887927e-06 
      -5.42450385e-08       8.32140177e-07      -1.45127513e-06 
      -1.99702622e-07       8.32140103e-07      -1.45249668e-06 
       5.36083629e-08       8.33361908e-07      -1.45249690e-06 
       1.99065946e-07       8.33361982e-07      -1.45127535e-06 
      -5.42450385e-08       8.32140177e-07      -1.45127513e-06 
      -1.99702622e-07       8.32140103e-07      -1.45249668e-06 
       5.36083629e-08       8.33361908e-07      -1.45249690e-06 
       1.99065946e-07       8.33361982e-07      -1.45127535e-06 
      -6.03315020e-08       1.04614994e-06      -1.82393997e-06 
      -2.22268649e-07       1.04614985e-06      -1.82531420e-06 
       5.96146728e-08       1.04752439e-06      -1.82531448e-06 
       2.21551820e-07       1.04752448e-06      -1.82394025e-06 
      -6.03315020e-08       1.04614994e-06      -1.82393997e-06 
      -2.22268649e-07       1.04614985e-06      -1.82531420e-06 
       5.96146728e-08       1.04752439e-06      -1.82531448e-06 
       2.21551820e-07       1.04752448e-06      -1.82394025e-06 
      -6.62637019e-08       1.28284603e-06      -2.23591689e-06 
      -2.44302050e-07       1.28284592e-06      -2.23744380e-06 
       6.54666024e-08       1.28437321e-06      -2.23744413e-06 
       2.43504950e-07       1.28437332e-06      -2.23591723e-06 
      -6.62637019e-08       1.28284603e-06      -2.23591689e-06 
      -2.44302050e-07       1.28284592e-06      -2.23744380e-06 
       6.54666024e-08       1.28437321e-06      -2.23744413e-06 
       2.43504950e-07       1.28437332e-06      -2.23591723e-06 
      -7.20377642e-08       1.54171871e-06      -2.68627554e-06 
      -2.65818833e-07       1.54171858e-06      -2.68793908e-06 
       7.11880288e-08       1.54338258e-06      -2.68793948e-06 
       2.64969098e-07       1.54338271e-06      -2.68627594e-06 
      -7.20377642e-08       1.54171871e-06      -2.68627554e-06 
      -2.65818833e-07       1.54171858e-06      -2.68793908e-06 
       7.11880288e-08       1.54338258e-06      -2.68793948e-06 
       2.64969098e-07       1.54338271e-06      -2.68627594e-06 
      -7.76779268e-08       1.82227973e-06      -3.17414471e-06 
      -2.86863777e-07       1.82227958e-06      -3.17594488e-06 
       7.67752524e-08       1.82408028e-06      -3.17594534e-06 
       2.85961103e-07       1.82408043e-06      -3.17414517e-06 
      -7.76779268e-08       1.82227973e-06      -3.17414471e-06 
      -2.86863777e-07       1.82227958e-06      -3.17594488e-06 
       7.67752524e-08       1.82408028e-06      -3.17594534e-06 
       2.85961103e-07       1.82408043e-06      -3.17414517e-06 
      -8.31841866e-08       2.12405846e-06      -3.69868040e-06 
      -3.07436880e-07       2.12405828e-06      -3.70061720e-06 
       8.22282744e-08       2.12599570e-06      -3.70061773e-06 
       3.06480968e-07       2.12599587e-06      -3.69868093e-06 
      -8.31841866e-08       2.12405846e-06      -3.69868040e-06 
      -3.07436880e-07       2.12405828e-06      -3.70061720e-06 
       8.22282744e-08       2.12599570e-06      -3.70061773e-06 
       3.06480968e-07       2.12599587e-06      -3.69868093e-06 
      -8.85565399e-08       2.44658429e-06      -4.25903863e-06 
      -3.27538139e-07       2.44658409e-06      -4.26111207e-06 
       8.75470998e-08       2.44865821e-06      -4.26111267e-06 
       3.26528698e-07       2.44865841e-06      -4.25903923e-06 
      -8.85565399e-08       2.44658429e-06      -4.25903863e-06 
      -3.27538139e-07       2.44658409e-06      -4.26111207e-06 
       8.75470998e-08       2.44865821e-06      -4.26111267e-06 
       3.26528698e-07       2.44865841e-06      -4.25903923e-06 
      -9.37949842e-08       2.78938659e-06      -4.85437542e-06 
      -3.47167549e-07       2.78938636e-06      -4.85658549e-06 
       9.27317307e-08       2.79159720e-06      -4.85658616e-06 
       3.46104296e-07       2.79159742e-06      -4.85437610e-06 
      -9.37949842e-08       2.78938659e-06      -4.85437542e-06 
      -3.47167549e-07       2.78938636e-06      -4.85658549e-06 
       9.27317307e-08       2.79159720e-06      -4.85658616e-06 
       3.46104296e-07       2.79159742e-06      -4.85437610e-06 
      -9.88995152e-08       3.15199474e-06      -5.48384678e-06 
      -3.66325109e-07       3.15199449e-06      -5.48619347e-06 
       9.77821712e-08       3.15434204e-06      -5.48619422e-06 
       3.65207764e-07       3.15434229e-06      -5.48384753e-06 
      -9.88995152e-08       3.15199474e-06      -5.48384678e-06 
      -3.66325109e-07       3.15199449e-06      -5.48619347e-06 
       9.77821712e-08       3.15434204e-06      -5.48619422e-06 
       3.65207764e-07       3.15434229e-06      -5.48384753e-06 
      -1.03870130e-07       3.53393813e-06      -6.14660872e-06 
      -3.85010812e-07       3.53393785e-06      -6.14909204e-06 
       1.02698425e-07       3.53642212e-06      -6.14909286e-06 
       3.83839108e-07       3.53642240e-06      -6.14660955e-06 
      -1.03870130e-07       3.53393813e-06      -6.14660872e-06 
      -3.85010812e-07       3.53393785e-06      -6.14909204e-06 
       1.02698425e-07       3.53642212e-06      -6.14909286e-06 
       3.83839108e-07       3.53642240e-06      -6.14660955e-06 
      -1.08706824e-07       3.93474613e-06      -6.84181726e-06 
      -4.03224658e-07       3.93474583e-06      -6.84443719e-06 
       1.07480495e-07       3.93736681e-06      -6.84443810e-06 
       4.01998329e-07       3.93736712e-06      -6.84181816e-06 
      -1.08706824e-07       3.93474613e-06      -6.84181726e-06 
      -4.03224658e-07       3.93474583e-06      -6.84443719e-06 
       1.07480495e-07       3.93736681e-06      -6.84443810e-06 
       4.01998329e-07       3.93736712e-06      -6.84181816e-06 
      -1.13409596e-07       4.35394812e-06      -7.56862840e-06 
      -4.20966642e-07       4.35394779e-06      -7.57138496e-06 
       1.12128385e-07       4.35670550e-06      -7.57138595e-06 
       4.19685431e-07       4.35670583e-06      -7.56862939e-06 
      -1.13409596e-07       4.35394812e-06      -7.56862840e-06 
      -4.20966642e-07       4.35394779e-06      -7.57138496e-06 
       1.12128385e-07       4.35670550e-06      -7.57138595e-06 
       4.19685431e-07       4.35670583e-06      -7.56862939e-06 
      -1.17978440e-07       4.79107349e-06      -8.32619816e-06 
      -4.38236761e-07       4.79107313e-06      -8.32909135e-06 
       1.16642099e-07       4.79396756e-06      -8.32909242e-06 
       4.36900418e-07       4.79396791e-06      -8.32619923e-06 
      -1.17978441e-07       4.79107349e-06      -8.32619816e-06 
      -4.38236761e-07       4.79107313e-06      -8.32909135e-06 
       1.16642099e-07       4.79396756e-06      -8.32909242e-06 
       4.36900418e-07       4.79396791e-06      -8.32619923e-06 
      -1.22414198e-07       5.24566908e-06      -9.11371007e-06 
      -4.55056179e-07       5.24566869e-06      -9.11672382e-06 
       1.21041842e-07       5.24868378e-06      -9.11672497e-06 
       4.53683824e-07       5.24868416e-06      -9.11371123e-06 
      -1.22414198e-07       5.24566908e-06      -9.11371007e-06 
      -4.55056179e-07       5.24566869e-06      -9.11672382e-06 
       1.21041842e-07       5.24868378e-06      -9.11672497e-06 
       4.53683824e-07       5.24868416e-06      -9.11371123e-06 
      -1.26735939e-07       5.71730340e-06      -9.93040620e-06 
      -4.71464278e-07       5.71730299e-06      -9.93354050e-06 
       1.25327215e-07       5.72043873e-06      -9.93354174e-06 
       4.70055554e-07       5.72043914e-06      -9.93040744e-06 
      -1.26735939e-07       5.71730340e-06      -9.93040620e-06 
      -4.71464278e-07       5.71730299e-06      -9.93354050e-06 
       1.25327215e-07       5.72043873e-06      -9.93354174e-06 
       4.70055554e-07       5.72043914e-06      -9.93040744e-06 
      -1.30943660e-07       6.20556242e-06      -1.07755544e-05 
      -4.87461053e-07       6.20556198e-06      -1.07788093e-05 
       1.29498223e-07       6.20881838e-06      -1.07788106e-05 
       4.86015615e-07       6.20881882e-06      -1.07755558e-05 
      -1.30943660e-07       6.20556242e-06      -1.07755544e-05 
      -4.87461053e-07       6.20556198e-06      -1.07788093e-05 
       1.29498223e-07       6.20881838e-06      -1.07788106e-05 
       4.86015615e-07       6.20881882e-06      -1.07755558e-05 
      -1.35037357e-07       6.71003211e-06      -1.16484227e-05 
      -5.03046499e-07       6.71003164e-06      -1.16517982e-05 
       1.33554868e-07       6.71340870e-06      -1.16517996e-05 
       5.01564009e-07       6.71340917e-06      -1.16484241e-05 
      -1.35037357e-07       6.71003211e-06      -1.16484227e-05 
      -5.03046499e-07       6.71003164e-06      -1.16517982e-05 
       1.33554868e-07       6.71340870e-06      -1.16517996e-05 
       5.01564009e-07       6.71340917e-06      -1.16484241e-05 
      -1.39017026e-07       7.23029844e-06      -1.25482790e-05 
      -5.18220613e-07       7.23029794e-06      -1.25517750e-05 
       1.37497155e-07       7.23379566e-06      -1.25517765e-05 
       5.16700742e-07       7.23379616e-06      -1.25482805e-05 
      -1.39017026e-07       7.23029844e-06      -1.25482790e-05 
      -5.18220613e-07       7.23029794e-06      -1.25517750e-05 
       1.37497155e-07       7.23379566e-06      -1.25517765e-05 
       5.16700742e-07       7.23379616e-06      -1.25482805e-05 
      -1.42882662e-07       7.76594737e-06      -1.34743911e-05 
      -5.32983389e-07       7.76594684e-06      -1.34780076e-05 
       1.41325089e-07       7.76956522e-06      -1.34780092e-05 
       5.31425816e-07       7.76956575e-06      -1.34743927e-05 
      -1.42882662e-07       7.76594737e-06      -1.34743911e-05 
      -5.32983389e-07       7.76594684e-06      -1.34780076e-05 
       1.41325089e-07       7.76956522e-06      -1.34780092e-05 
       5.31425816e-07       7.76956575e-06      -1.34743927e-05 
      -1.46634260e-07       8.31656487e-06      -1.44260270e-05 
      -5.47334824e-07       8.31656431e-06      -1.44297641e-05 
       1.45038675e-07       8.32030335e-06      -1.44297657e-05 
       5.45739239e-07       8.32030391e-06      -1.44260286e-05 
      -1.46634260e-07       8.31656487e-06      -1.44260270e-05 
      -5.47334824e-07       8.31656431e-06      -1.44297641e-05 
       1.45038675e-07       8.32030335e-06      -1.44297657e-05 
       5.45739239e-07       8.32030391e-06      -1.44260286e-05 
      -1.50271816e-07       8.88173691e-06      -1.54024545e-05 
      -5.61274911e-07       8.88173632e-06      -1.54063122e-05 
       1.48637918e-07       8.88559602e-06      -1.54063139e-05 
       5.59641014e-07       8.88559661e-06      -1.54024563e-05 
      -1.50271816e-07       8.88173691e-06      -1.54024545e-05 
      -5.61274911e-07       8.88173632e-06      -1.54063122e-05 
       1.48637918e-07       8.88559602e-06      -1.54063139e-05 
       5.59641014e-07       8.88559661e-06      -1.54024563e-05 
      -1.53795326e-07       9.46104946e-06      -1.64029417e-05 
      -5.74803649e-07       9.46104885e-06      -1.64069199e-05 
       1.52122820e-07       9.46502920e-06      -1.64069218e-05 
       5.73131143e-07       9.46502982e-06      -1.64029435e-05 
      -1.53795326e-07       9.46104946e-06      -1.64029417e-05 
      -5.74803649e-07       9.46104885e-06      -1.64069199e-05 
       1.52122820e-07       9.46502920e-06      -1.64069218e-05 
       5.73131143e-07       9.46502982e-06      -1.64029435e-05 
      -1.57204784e-07       1.00540885e-05      -1.74267564e-05 
      -5.87921032e-07       1.00540878e-05      -1.74308552e-05 
       1.55493387e-07       1.00581889e-05      -1.74308571e-05 
       5.86209634e-07       1.00581895e-05      -1.74267583e-05 
      -1.57204785e-07       1.00540885e-05      -1.74267564e-05 
      -5.87921032e-07       1.00540878e-05      -1.74308552e-05 
       1.55493386e-07       1.00581889e-05      -1.74308571e-05 
       5.86209633e-07       1.00581895e-05      -1.74267583e-05 
      -1.60503943e-07       1.06604575e-05      -1.84731939e-05 
      -6.00651210e-07       1.06604568e-05      -1.84773972e-05 
       1.58766326e-07       1.06646624e-05      -1.84773992e-05 
       5.98913593e-07       1.06646631e-05      -1.84731959e-05 
      -1.60503943e-07       1.06604575e-05      -1.84731939e-05 
      -6.00651210e-07       1.06604568e-05      -1.84773972e-05 
       1.58766326e-07       1.06646624e-05      -1.84773992e-05 
       5.98913593e-07       1.06646631e-05      -1.84731959e-05 
      -1.63707795e-07       1.12797815e-05      -1.95416060e-05 
      -6.13029271e-07       1.12797808e-05      -1.95459137e-05 
       1.61943626e-07       1.12840910e-05      -1.95459158e-05 
       6.11265101e-07       1.12840917e-05      -1.95416081e-05 
      -1.63707795e-07       1.12797815e-05      -1.95416060e-05 
      -6.13029271e-07       1.12797808e-05      -1.95459137e-05 
       1.61943626e-07       1.12840910e-05      -1.95459158e-05 
       6.11265101e-07       1.12840917e-05      -1.95416081e-05 
      -1.66816338e-07       1.19117029e-05      -2.06313690e-05 
      -6.25055208e-07       1.19117022e-05      -2.06357812e-05 
       1.65025291e-07       1.19161170e-05      -2.06357834e-05 
       6.23264160e-07       1.19161177e-05      -2.06313712e-05 
      -1.66816338e-07       1.19117029e-05      -2.06313690e-05 
      -6.25055208e-07       1.19117022e-05      -2.06357812e-05 
       1.65025291e-07       1.19161170e-05      -2.06357834e-05 
       6.23264160e-07       1.19161177e-05      -2.06313712e-05 
      -1.69829567e-07       1.25558641e-05      -2.17418594e-05 
      -6.36729019e-07       1.25558633e-05      -2.17463761e-05 
       1.68011325e-07       1.25603827e-05      -2.17463784e-05 
       6.34910776e-07       1.25603834e-05      -2.17418616e-05 
      -1.69829567e-07       1.25558641e-05      -2.17418594e-05 
      -6.36729019e-07       1.25558633e-05      -2.17463761e-05 
       1.68011325e-07       1.25603827e-05      -2.17463784e-05 
       6.34910776e-07       1.25603834e-05      -2.17418616e-05 
      -1.72747479e-07       1.32119073e-05      -2.28724536e-05 
      -6.48050698e-07       1.32119065e-05      -2.28770748e-05 
       1.70901732e-07       1.32165304e-05      -2.28770772e-05 
       6.46204951e-07       1.32165312e-05      -2.28724559e-05 
      -1.72747479e-07       1.32119073e-05      -2.28724536e-05 
      -6.48050698e-07       1.32119065e-05      -2.28770748e-05 
       1.70901732e-07       1.32165304e-05      -2.28770772e-05 
       6.46204951e-07       1.32165312e-05      -2.28724559e-05 
      -1.75570066e-07       1.38794749e-05      -2.40225281e-05 
      -6.59020240e-07       1.38794741e-05      -2.40272538e-05 
       1.73696519e-07       1.38842027e-05      -2.40272562e-05 
       6.57146693e-07       1.38842035e-05      -2.40225305e-05 
      -1.75570066e-07       1.38794749e-05      -2.40225281e-05 
      -6.59020240e-07       1.38794741e-05      -2.40272538e-05 
       1.73696519e-07       1.38842027e-05      -2.40272562e-05 
       6.57146693e-07       1.38842035e-05      -2.40225305e-05 
      -1.78297325e-07       1.45582094e-05      -2.51914593e-05 
      -6.69637641e-07       1.45582086e-05      -2.51962895e-05 
       1.76395688e-07       1.45630417e-05      -2.51962920e-05 
       6.67736004e-07       1.45630425e-05      -2.51914618e-05 
      -1.78297325e-07       1.45582094e-05      -2.51914593e-05 
      -6.69637641e-07       1.45582086e-05      -2.51962895e-05 
       1.76395688e-07       1.45630417e-05      -2.51962920e-05 
       6.67736004e-07       1.45630425e-05      -2.51914618e-05 
      -1.80929250e-07       1.52477530e-05      -2.63786237e-05 
      -6.79902895e-07       1.52477522e-05      -2.63835584e-05 
       1.78999248e-07       1.52526898e-05      -2.63835610e-05 
       6.77972892e-07       1.52526907e-05      -2.63786263e-05 
      -1.80929250e-07       1.52477530e-05      -2.63786237e-05 
      -6.79902895e-07       1.52477522e-05      -2.63835584e-05 