# vtk DataFile Version 2.0
./output/onsasExample_BladeCantileverBeamPitch_windVel3DDynamic 3D/onsasExample_BladeCantileverBeamPitch_windVel3DDynamic 3D_0357.vtk
ASCII
DATASET UNSTRUCTURED_GRID

POINTS 800 float
      -3.519313e-23      -7.180703e-02      -7.180703e-02 
      -1.975994e-23       7.180703e-02      -7.180703e-02 
       3.519313e-23       7.180703e-02       7.180703e-02 
       1.975994e-23      -7.180703e-02       7.180703e-02 
       2.000000e-01      -7.180702e-02      -7.180706e-02 
       2.000000e-01       7.180705e-02      -7.180706e-02 
       2.000000e-01       7.180705e-02       7.180700e-02 
       2.000000e-01      -7.180702e-02       7.180700e-02 
       2.000000e-01      -7.180702e-02      -7.180706e-02 
       2.000000e-01       7.180705e-02      -7.180706e-02 
       2.000000e-01       7.180705e-02       7.180700e-02 
       2.000000e-01      -7.180702e-02       7.180700e-02 
       4.000000e-01      -7.180698e-02      -7.180715e-02 
       3.999999e-01       7.180709e-02      -7.180715e-02 
       4.000000e-01       7.180709e-02       7.180692e-02 
       4.000001e-01      -7.180698e-02       7.180692e-02 
       4.000000e-01      -7.180698e-02      -7.180715e-02 
       3.999999e-01       7.180709e-02      -7.180715e-02 
       4.000000e-01       7.180709e-02       7.180692e-02 
       4.000001e-01      -7.180698e-02       7.180692e-02 
       6.000000e-01      -7.180691e-02      -7.180728e-02 
       5.999999e-01       7.180716e-02      -7.180728e-02 
       6.000000e-01       7.180716e-02       7.180678e-02 
       6.000001e-01      -7.180691e-02       7.180678e-02 
       6.000000e-01      -7.180691e-02      -7.180728e-02 
       5.999999e-01       7.180716e-02      -7.180728e-02 
       6.000000e-01       7.180716e-02       7.180678e-02 
       6.000001e-01      -7.180691e-02       7.180678e-02 
       8.000000e-01      -7.180682e-02      -7.180748e-02 
       7.999999e-01       7.180725e-02      -7.180748e-02 
       8.000000e-01       7.180725e-02       7.180659e-02 
       8.000001e-01      -7.180681e-02       7.180659e-02 
       8.000000e-01      -7.180682e-02      -7.180748e-02 
       7.999999e-01       7.180725e-02      -7.180748e-02 
       8.000000e-01       7.180725e-02       7.180659e-02 
       8.000001e-01      -7.180681e-02       7.180659e-02 
       1.000000e+00      -7.180670e-02      -7.180772e-02 
       9.999999e-01       7.180737e-02      -7.180772e-02 
       1.000000e+00       7.180737e-02       7.180634e-02 
       1.000000e+00      -7.180669e-02       7.180634e-02 
       1.000000e+00      -7.180670e-02      -7.180772e-02 
       9.999999e-01       7.180737e-02      -7.180772e-02 
       1.000000e+00       7.180737e-02       7.180634e-02 
       1.000000e+00      -7.180669e-02       7.180634e-02 
       1.200000e+00      -7.180655e-02      -7.180802e-02 
       1.200000e+00       7.180752e-02      -7.180802e-02 
       1.200000e+00       7.180752e-02       7.180605e-02 
       1.200000e+00      -7.180655e-02       7.180605e-02 
       1.200000e+00      -7.180655e-02      -7.180802e-02 
       1.200000e+00       7.180752e-02      -7.180802e-02 
       1.200000e+00       7.180752e-02       7.180605e-02 
       1.200000e+00      -7.180655e-02       7.180605e-02 
       1.400000e+00      -7.180638e-02      -7.180837e-02 
       1.400000e+00       7.180769e-02      -7.180837e-02 
       1.400000e+00       7.180769e-02       7.180570e-02 
       1.400000e+00      -7.180638e-02       7.180570e-02 
       1.400000e+00      -7.180638e-02      -7.180837e-02 
       1.400000e+00       7.180769e-02      -7.180837e-02 
       1.400000e+00       7.180769e-02       7.180570e-02 
       1.400000e+00      -7.180638e-02       7.180570e-02 
       1.600000e+00      -7.180618e-02      -7.180876e-02 
       1.600000e+00       7.180788e-02      -7.180876e-02 
       1.600000e+00       7.180788e-02       7.180530e-02 
       1.600000e+00      -7.180618e-02       7.180530e-02 
       1.600000e+00      -7.180618e-02      -7.180876e-02 
       1.600000e+00       7.180788e-02      -7.180876e-02 
       1.600000e+00       7.180788e-02       7.180530e-02 
       1.600000e+00      -7.180618e-02       7.180530e-02 
       1.800000e+00      -7.180597e-02      -7.180921e-02 
       1.800000e+00       7.180810e-02      -7.180921e-02 
       1.800000e+00       7.180810e-02       7.180486e-02 
       1.800000e+00      -7.180597e-02       7.180486e-02 
       1.800000e+00      -7.180597e-02      -7.180921e-02 
       1.800000e+00       7.180810e-02      -7.180921e-02 
       1.800000e+00       7.180810e-02       7.180486e-02 
       1.800000e+00      -7.180597e-02       7.180486e-02 
       2.000000e+00      -7.180573e-02      -7.180970e-02 
       2.000000e+00       7.180834e-02      -7.180970e-02 
       2.000000e+00       7.180834e-02       7.180436e-02 
       2.000000e+00      -7.180572e-02       7.180436e-02 
       2.000000e+00      -7.180573e-02      -7.180970e-02 
       2.000000e+00       7.180834e-02      -7.180970e-02 
       2.000000e+00       7.180834e-02       7.180436e-02 
       2.000000e+00      -7.180572e-02       7.180436e-02 
       2.200000e+00      -7.180546e-02      -7.181024e-02 
       2.200000e+00       7.180861e-02      -7.181024e-02 
       2.200000e+00       7.180861e-02       7.180382e-02 
       2.200000e+00      -7.180546e-02       7.180383e-02 
       2.200000e+00      -7.180546e-02      -7.181024e-02 
       2.200000e+00       7.180861e-02      -7.181024e-02 
       2.200000e+00       7.180861e-02       7.180382e-02 
       2.200000e+00      -7.180546e-02       7.180383e-02 
       2.400000e+00      -7.180517e-02      -7.181083e-02 
       2.400000e+00       7.180889e-02      -7.181083e-02 
       2.400000e+00       7.180889e-02       7.180324e-02 
       2.400000e+00      -7.180517e-02       7.180324e-02 
       2.400000e+00      -7.180517e-02      -7.181083e-02 
       2.400000e+00       7.180889e-02      -7.181083e-02 
       2.400000e+00       7.180889e-02       7.180324e-02 
       2.400000e+00      -7.180517e-02       7.180324e-02 
       2.600000e+00      -7.180487e-02      -7.181146e-02 
       2.600000e+00       7.180920e-02      -7.181146e-02 
       2.600000e+00       7.180920e-02       7.180261e-02 
       2.600000e+00      -7.180486e-02       7.180261e-02 
       2.600000e+00      -7.180487e-02      -7.181146e-02 
       2.600000e+00       7.180920e-02      -7.181146e-02 
       2.600000e+00       7.180920e-02       7.180261e-02 
       2.600000e+00      -7.180486e-02       7.180261e-02 
       2.800000e+00      -7.180454e-02      -7.181213e-02 
       2.800000e+00       7.180953e-02      -7.181213e-02 
       2.800000e+00       7.180953e-02       7.180194e-02 
       2.800000e+00      -7.180454e-02       7.180194e-02 
       2.800000e+00      -7.180454e-02      -7.181213e-02 
       2.800000e+00       7.180953e-02      -7.181213e-02 
       2.800000e+00       7.180953e-02       7.180194e-02 
       2.800000e+00      -7.180454e-02       7.180194e-02 
       3.000000e+00      -7.180419e-02      -7.181284e-02 
       3.000000e+00       7.180988e-02      -7.181285e-02 
       3.000000e+00       7.180988e-02       7.180122e-02 
       3.000000e+00      -7.180419e-02       7.180122e-02 
       3.000000e+00      -7.180419e-02      -7.181284e-02 
       3.000000e+00       7.180988e-02      -7.181285e-02 
       3.000000e+00       7.180988e-02       7.180122e-02 
       3.000000e+00      -7.180419e-02       7.180122e-02 
       3.200000e+00      -7.180382e-02      -7.181360e-02 
       3.200000e+00       7.181025e-02      -7.181360e-02 
       3.200000e+00       7.181025e-02       7.180046e-02 
       3.200000e+00      -7.180381e-02       7.180047e-02 
       3.200000e+00      -7.180382e-02      -7.181360e-02 
       3.200000e+00       7.181025e-02      -7.181360e-02 
       3.200000e+00       7.181025e-02       7.180046e-02 
       3.200000e+00      -7.180381e-02       7.180047e-02 
       3.400000e+00      -7.180343e-02      -7.181440e-02 
       3.400000e+00       7.181064e-02      -7.181440e-02 
       3.400000e+00       7.181064e-02       7.179966e-02 
       3.400000e+00      -7.180342e-02       7.179967e-02 
       3.400000e+00      -7.180343e-02      -7.181440e-02 
       3.400000e+00       7.181064e-02      -7.181440e-02 
       3.400000e+00       7.181064e-02       7.179966e-02 
       3.400000e+00      -7.180342e-02       7.179967e-02 
       3.600000e+00      -7.180302e-02      -7.181524e-02 
       3.600000e+00       7.181105e-02      -7.181524e-02 
       3.600000e+00       7.181105e-02       7.179883e-02 
       3.600000e+00      -7.180301e-02       7.179883e-02 
       3.600000e+00      -7.180302e-02      -7.181524e-02 
       3.600000e+00       7.181105e-02      -7.181524e-02 
       3.600000e+00       7.181105e-02       7.179883e-02 
       3.600000e+00      -7.180301e-02       7.179883e-02 
       3.800000e+00      -7.180259e-02      -7.181611e-02 
       3.800000e+00       7.181148e-02      -7.181612e-02 
       3.800000e+00       7.181148e-02       7.179795e-02 
       3.800000e+00      -7.180259e-02       7.179795e-02 
       3.800000e+00      -7.180259e-02      -7.181611e-02 
       3.800000e+00       7.181148e-02      -7.181612e-02 
       3.800000e+00       7.181148e-02       7.179795e-02 
       3.800000e+00      -7.180259e-02       7.179795e-02 
       4.000000e+00      -7.180214e-02      -7.181703e-02 
       4.000000e+00       7.181192e-02      -7.181703e-02 
       4.000000e+00       7.181193e-02       7.179704e-02 
       4.000000e+00      -7.180214e-02       7.179704e-02 
       4.000000e+00      -7.180214e-02      -7.181703e-02 
       4.000000e+00       7.181192e-02      -7.181703e-02 
       4.000000e+00       7.181193e-02       7.179704e-02 
       4.000000e+00      -7.180214e-02       7.179704e-02 
       4.200000e+00      -7.180168e-02      -7.181798e-02 
[...]
POINT_DATA       800 
VECTORS Displacements float
      -3.51931333e-23      -1.38777878e-17      -1.38777878e-17 
      -1.97599397e-23       1.38777878e-17      -1.38777878e-17 
       3.51931333e-23       1.38777878e-17       1.38777878e-17 
       1.97599397e-23      -1.38777878e-17       1.38777878e-17 
      -1.03418392e-08       1.38034804e-08      -2.81905451e-08 
      -3.02125046e-08       1.38034790e-08      -2.83438975e-08 
       1.02577262e-08       1.39568369e-08      -2.83439032e-08 
       3.01283916e-08       1.39568383e-08      -2.81905508e-08 
      -1.03418392e-08       1.38034804e-08      -2.81905451e-08 
      -3.02125046e-08       1.38034790e-08      -2.83438975e-08 
       1.02577262e-08       1.39568369e-08      -2.83439032e-08 
       3.01283916e-08       1.39568383e-08      -2.81905508e-08 
      -2.04969139e-08       5.50152536e-08      -1.12216554e-07 
      -5.98590802e-08       5.50152482e-08      -1.12523253e-07 
       2.03285031e-08       5.53219694e-08      -1.12523275e-07 
       5.96906693e-08       5.53219748e-08      -1.12216576e-07 
      -2.04969139e-08       5.50152536e-08      -1.12216554e-07 
      -5.98590802e-08       5.50152482e-08      -1.12523253e-07 
       2.03285031e-08       5.53219694e-08      -1.12523275e-07 
       5.96906693e-08       5.53219748e-08      -1.12216576e-07 
      -3.04652225e-08       1.23107287e-07      -2.51029552e-07 
      -8.89397251e-08       1.23107275e-07      -2.51489593e-07 
       3.02123324e-08       1.23567365e-07      -2.51489642e-07 
       8.86868351e-08       1.23567377e-07      -2.51029601e-07 
      -3.04652225e-08       1.23107287e-07      -2.51029552e-07 
      -8.89397251e-08       1.23107275e-07      -2.51489593e-07 
       3.02123324e-08       1.23567365e-07      -2.51489642e-07 
       8.86868351e-08       1.23567377e-07      -2.51029601e-07 
      -4.02467634e-08       2.17551548e-07      -4.43581066e-07 
      -1.17454438e-07       2.17551528e-07      -4.44194444e-07 
       3.99092158e-08       2.18164990e-07      -4.44194530e-07 
       1.17116890e-07       2.18165011e-07      -4.43581152e-07 
      -4.02467634e-08       2.17551548e-07      -4.43581066e-07 
      -1.17454438e-07       2.17551528e-07      -4.44194444e-07 
       3.99092158e-08       2.18164990e-07      -4.44194530e-07 
       1.17116890e-07       2.18165011e-07      -4.43581152e-07 
      -4.98415343e-08       3.37820005e-07      -6.88822621e-07 
      -1.45403216e-07       3.37819973e-07      -6.89589331e-07 
       4.94191552e-08       3.38586814e-07      -6.89589463e-07 
       1.44980837e-07       3.38586845e-07      -6.88822753e-07 
      -4.98415343e-08       3.37820005e-07      -6.88822621e-07 
      -1.45403216e-07       3.37819973e-07      -6.89589331e-07 
       4.94191552e-08       3.38586814e-07      -6.89589463e-07 
       1.44980837e-07       3.38586845e-07      -6.88822753e-07 
      -5.92495339e-08       4.83384624e-07      -9.85705743e-07 
      -1.72786059e-07       4.83384579e-07      -9.86625782e-07 
       5.87421525e-08       4.84304802e-07      -9.86625969e-07 
       1.72278677e-07       4.84304846e-07      -9.85705930e-07 
      -5.92495339e-08       4.83384624e-07      -9.85705743e-07 
      -1.72786059e-07       4.83384579e-07      -9.86625782e-07 
       5.87421525e-08       4.84304802e-07      -9.86625969e-07 
       1.72278677e-07       4.84304846e-07      -9.85705930e-07 
      -6.84707604e-08       6.53717374e-07      -1.33318196e-06 
      -1.99602964e-07       6.53717314e-07      -1.33425532e-06 
       6.78782088e-08       6.54790922e-07      -1.33425557e-06 
       1.99010412e-07       6.54790982e-07      -1.33318221e-06 
      -6.84707604e-08       6.53717374e-07      -1.33318196e-06 
      -1.99602964e-07       6.53717314e-07      -1.33425532e-06 
       6.78782088e-08       6.54790922e-07      -1.33425557e-06 
       1.99010412e-07       6.54790982e-07      -1.33318221e-06 
      -7.75052125e-08       8.48290221e-07      -1.73020279e-06 
      -2.25853930e-07       8.48290145e-07      -1.73142948e-06 
       7.68273263e-08       8.49517142e-07      -1.73142980e-06 
       2.25176043e-07       8.49517219e-07      -1.73020311e-06 
      -7.75052125e-08       8.48290221e-07      -1.73020279e-06 
      -2.25853930e-07       8.48290145e-07      -1.73142948e-06 
       7.68273263e-08       8.49517142e-07      -1.73142980e-06 
       2.25176043e-07       8.49517219e-07      -1.73020311e-06 
      -8.63528875e-08       1.06657513e-06      -2.17571977e-06 
      -2.51538954e-07       1.06657504e-06      -2.17709978e-06 
       8.55895068e-08       1.06795543e-06      -2.17710017e-06 
       2.50775573e-07       1.06795552e-06      -2.17572017e-06 
      -8.63528875e-08       1.06657513e-06      -2.17571977e-06 
      -2.51538954e-07       1.06657504e-06      -2.17709978e-06 
       8.55895068e-08       1.06795543e-06      -2.17710017e-06 
       2.50775573e-07       1.06795552e-06      -2.17572017e-06 
      -9.50137840e-08       1.30804408e-06      -2.66868443e-06 
      -2.76658036e-07       1.30804396e-06      -2.67021774e-06 
       9.41647516e-08       1.30957775e-06      -2.67021822e-06 
       2.75809004e-07       1.30957786e-06      -2.66868490e-06 
      -9.50137842e-08       1.30804408e-06      -2.66868443e-06 
      -2.76658036e-07       1.30804396e-06      -2.67021774e-06 
       9.41647520e-08       1.30957775e-06      -2.67021822e-06 
       2.75809003e-07       1.30957786e-06      -2.66868490e-06 
      -1.03481362e-07       1.57218608e-06      -3.20807274e-06 
      -3.01224254e-07       1.57218595e-06      -3.20974332e-06 
       1.02576150e-07       1.57385708e-06      -3.20974389e-06 
       3.00319042e-07       1.57385722e-06      -3.20807331e-06 
      -1.03481362e-07       1.57218608e-06      -3.20807274e-06 
      -3.01224254e-07       1.57218595e-06      -3.20974332e-06 
       1.02576150e-07       1.57385708e-06      -3.20974389e-06 
       3.00319042e-07       1.57385722e-06      -3.20807331e-06 
      -1.11780031e-07       1.85851114e-06      -3.79291461e-06 
      -3.25282258e-07       1.85851098e-06      -3.79472245e-06 
       1.10818228e-07       1.86031946e-06      -3.79472311e-06 
       3.24320455e-07       1.86031962e-06      -3.79291527e-06 
      -1.11780031e-07       1.85851114e-06      -3.79291461e-06 
      -3.25282258e-07       1.85851098e-06      -3.79472245e-06 
       1.10818228e-07       1.86031946e-06      -3.79472311e-06 
       3.24320455e-07       1.86031962e-06      -3.79291527e-06 
      -1.19909790e-07       2.16654671e-06      -4.42226648e-06 
      -3.48832046e-07       2.16654652e-06      -4.42421158e-06 
       1.18890989e-07       2.16849237e-06      -4.42421234e-06 
       3.47813246e-07       2.16849255e-06      -4.42226724e-06 
      -1.19909790e-07       2.16654671e-06      -4.42226648e-06 
      -3.48832046e-07       2.16654652e-06      -4.42421158e-06 
       1.18890989e-07       2.16849237e-06      -4.42421234e-06 
       3.47813246e-07       2.16849255e-06      -4.42226724e-06 
      -1.27870631e-07       2.49582028e-06      -5.09518482e-06 
      -3.71873611e-07       2.49582007e-06      -5.09726717e-06 
       1.26794440e-07       2.49790327e-06      -5.09726803e-06 
       3.70797420e-07       2.49790347e-06      -5.09518568e-06 
      -1.27870631e-07       2.49582028e-06      -5.09518482e-06 
      -3.71873611e-07       2.49582007e-06      -5.09726717e-06 
       1.26794440e-07       2.49790327e-06      -5.09726803e-06 
       3.70797420e-07       2.49790347e-06      -5.09518568e-06 
      -1.35662552e-07       2.84585932e-06      -5.81072606e-06 
      -3.94406951e-07       2.84585908e-06      -5.81294567e-06 
       1.34528583e-07       2.84807964e-06      -5.81294664e-06 
       3.93272981e-07       2.84807987e-06      -5.81072704e-06 
      -1.35662552e-07       2.84585932e-06      -5.81072606e-06 
      -3.94406951e-07       2.84585908e-06      -5.81294567e-06 
       1.34528583e-07       2.84807964e-06      -5.81294664e-06 
       3.93272981e-07       2.84807987e-06      -5.81072704e-06 
      -1.43285549e-07       3.21619130e-06      -6.56794667e-06 
      -4.16432060e-07       3.21619104e-06      -6.57030353e-06 
       1.42093423e-07       3.21854896e-06      -6.57030461e-06 
       4.15239933e-07       3.21854922e-06      -6.56794776e-06 
      -1.43285549e-07       3.21619130e-06      -6.56794667e-06 
      -4.16432060e-07       3.21619104e-06      -6.57030353e-06 
       1.42093423e-07       3.21854896e-06      -6.57030461e-06 
       4.15239933e-07       3.21854922e-06      -6.56794776e-06 
      -1.50739616e-07       3.60634371e-06      -7.36590310e-06 
      -4.37948933e-07       3.60634343e-06      -7.36839721e-06 
       1.49488965e-07       3.60883871e-06      -7.36839841e-06 
       4.36698282e-07       3.60883899e-06      -7.36590430e-06 
      -1.50739616e-07       3.60634371e-06      -7.36590310e-06 
      -4.37948933e-07       3.60634343e-06      -7.36839721e-06 
       1.49488965e-07       3.60883871e-06      -7.36839841e-06 
       4.36698282e-07       3.60883899e-06      -7.36590430e-06 
      -1.58024750e-07       4.01584403e-06      -8.20365180e-06 
      -4.58957567e-07       4.01584371e-06      -8.20628315e-06 
       1.56715212e-07       4.01847635e-06      -8.20628447e-06 
       4.57648029e-07       4.01847667e-06      -8.20365312e-06 
      -1.58024750e-07       4.01584403e-06      -8.20365180e-06 
      -4.58957567e-07       4.01584371e-06      -8.20628315e-06 
       1.56715212e-07       4.01847635e-06      -8.20628447e-06 
       4.57648029e-07       4.01847667e-06      -8.20365312e-06 
      -1.65140946e-07       4.44421971e-06      -9.08024922e-06 
      -4.79457958e-07       4.44421937e-06      -9.08301782e-06 
       1.63772170e-07       4.44698937e-06      -9.08301926e-06 
       4.78089182e-07       4.44698972e-06      -9.08025066e-06 
      -1.65140946e-07       4.44421971e-06      -9.08024922e-06 
      -4.79457958e-07       4.44421937e-06      -9.08301782e-06 
       1.63772170e-07       4.44698937e-06      -9.08301926e-06 
       4.78089182e-07       4.44698972e-06      -9.08025066e-06 
      -1.72088200e-07       4.89099825e-06      -9.99475182e-06 
      -4.99450102e-07       4.89099787e-06      -9.99765766e-06 
       1.70659840e-07       4.89390525e-06      -9.99765923e-06 
       4.98021742e-07       4.89390562e-06      -9.99475338e-06 
      -1.72088200e-07       4.89099825e-06      -9.99475182e-06 
      -4.99450101e-07       4.89099787e-06      -9.99765766e-06 
       1.70659841e-07       4.89390525e-06      -9.99765923e-06 
       4.98021743e-07       4.89390562e-06      -9.99475338e-06 
      -1.78865142e-07       5.35572449e-06      -1.09462418e-05 
      -5.18952705e-07       5.35572409e-06      -1.09492688e-05 
       1.77397691e-07       5.35875275e-06      -1.09492705e-05 
       5.17485254e-07       5.35875315e-06      -1.09462435e-05 
      -1.78865142e-07       5.35572449e-06      -1.09462418e-05 
      -5.18952705e-07       5.35572409e-06      -1.09492688e-05 
       1.77397691e-07       5.35875275e-06      -1.09492705e-05 
       5.17485254e-07       5.35875315e-06      -1.09462435e-05 
      -1.85491320e-07       5.83796433e-06      -1.19338561e-05 
      -5.38005213e-07       5.83796390e-06      -1.19370043e-05 
       1.83984283e-07       5.84111384e-06      -1.19370061e-05 
       5.36498175e-07       5.84111427e-06      -1.19338579e-05 
      -1.85491320e-07       5.83796433e-06      -1.19338561e-05 
      -5.38005213e-07       5.83796390e-06      -1.19370043e-05 
       1.83984283e-07       5.84111384e-06      -1.19370061e-05 
       5.36498175e-07       5.84111427e-06      -1.19338579e-05 
      -1.91966726e-07       6.33730092e-06      -1.29567572e-05 
      -5.56607617e-07       6.33730045e-06      -1.29600266e-05 
       1.90419623e-07       6.34057168e-06      -1.29600285e-05 
       5.55060514e-07       6.34057214e-06      -1.29567592e-05 
      -1.91966726e-07       6.33730092e-06      -1.29567572e-05 
      -5.56607617e-07       6.33730045e-06      -1.29600266e-05 
       1.90419623e-07       6.34057168e-06      -1.29600285e-05 
       5.55060514e-07       6.34057214e-06      -1.29567592e-05 
      -1.98291358e-07       6.85331739e-06      -1.40141077e-05 
      -5.74759916e-07       6.85331689e-06      -1.40174982e-05 
       1.96703716e-07       6.85670940e-06      -1.40175003e-05 
       5.73172275e-07       6.85670989e-06      -1.40141098e-05 
      -1.98291358e-07       6.85331739e-06      -1.40141077e-05 
      -5.74759916e-07       6.85331689e-06      -1.40174982e-05 
       1.96703716e-07       6.85670940e-06      -1.40175003e-05 
       5.73172275e-07       6.85670989e-06      -1.40141098e-05 
      -2.04465206e-07       7.38559689e-06      -1.51050701e-05 
      -5.92462102e-07       7.38559636e-06      -1.51085817e-05 
       2.02836568e-07       7.38911015e-06      -1.51085839e-05 
       5.90833464e-07       7.38911068e-06      -1.51050723e-05 
      -2.04465206e-07       7.38559689e-06      -1.51050701e-05 
      -5.92462102e-07       7.38559636e-06      -1.51085817e-05 
       2.02836568e-07       7.38911015e-06      -1.51085839e-05 
       5.90833464e-07       7.38911068e-06      -1.51050723e-05 
      -2.10488266e-07       7.93372257e-06      -1.62288069e-05 
      -6.09714168e-07       7.93372201e-06      -1.62324397e-05 
       2.08818185e-07       7.93735709e-06      -1.62324421e-05 
       6.08044086e-07       7.93735764e-06      -1.62288093e-05 
      -2.10488266e-07       7.93372257e-06      -1.62288069e-05 
      -6.09714168e-07       7.93372201e-06      -1.62324397e-05 
       2.08818185e-07       7.93735709e-06      -1.62324421e-05 
       6.08044086e-07       7.93735764e-06      -1.62288093e-05 
      -2.16360533e-07       8.49727757e-06      -1.73844808e-05 
      -6.26516110e-07       8.49727699e-06      -1.73882347e-05 
       2.14648572e-07       8.50103335e-06      -1.73882372e-05 
       6.24804149e-07       8.50103393e-06      -1.73844832e-05 
      -2.16360533e-07       8.49727757e-06      -1.73844808e-05 
      -6.26516110e-07       8.49727699e-06      -1.73882347e-05 
       2.14648572e-07       8.50103335e-06      -1.73882372e-05 
       6.24804149e-07       8.50103393e-06      -1.73844832e-05 
      -2.22081999e-07       9.07584504e-06      -1.85712542e-05 
      -6.42867920e-07       9.07584443e-06      -1.85751293e-05 
       2.20327736e-07       9.07972207e-06      -1.85751319e-05 
       6.41113657e-07       9.07972269e-06      -1.85712567e-05 
      -2.22081999e-07       9.07584504e-06      -1.85712542e-05 
      -6.42867920e-07       9.07584443e-06      -1.85751293e-05 
       2.20327736e-07       9.07972207e-06      -1.85751319e-05 
       6.41113657e-07       9.07972269e-06      -1.85712567e-05 
      -2.27652661e-07       9.66900813e-06      -1.97882896e-05 
      -6.58769595e-07       9.66900748e-06      -1.97922859e-05 
       2.25855683e-07       9.67300641e-06      -1.97922886e-05 
       6.56972616e-07       9.67300706e-06      -1.97882923e-05 
      -2.27652661e-07       9.66900813e-06      -1.97882896e-05 
      -6.58769595e-07       9.66900748e-06      -1.97922859e-05 
       2.25855683e-07       9.67300641e-06      -1.97922886e-05 
       6.56972616e-07       9.67300706e-06      -1.97882923e-05 
      -2.33072512e-07       1.02763500e-05      -2.10347497e-05 
      -6.74221129e-07       1.02763493e-05      -2.10388671e-05 
       2.31232415e-07       1.02804695e-05      -2.10388699e-05 
       6.72381033e-07       1.02804702e-05      -2.10347525e-05 
      -2.33072512e-07       1.02763500e-05      -2.10347497e-05 
      -6.74221129e-07       1.02763493e-05      -2.10388671e-05 
       2.31232416e-07       1.02804695e-05      -2.10388699e-05 
       6.72381033e-07       1.02804702e-05      -2.10347525e-05 
      -2.38343613e-07       1.08974711e-05      -2.23098227e-05 
      -6.89244649e-07       1.08974704e-05      -2.23140452e-05 
       2.36474002e-07       1.09016958e-05      -2.23140482e-05 
       6.87375038e-07       1.09016965e-05      -2.23098257e-05 
      -2.38343613e-07       1.08974711e-05      -2.23098227e-05 
      -6.89244649e-07       1.08974704e-05      -2.23140452e-05 
       2.36474002e-07       1.09016958e-05      -2.23140482e-05 
       6.87375038e-07       1.09016965e-05      -2.23098257e-05 
      -2.43481969e-07       1.15319930e-05      -2.36127515e-05 
      -7.03875823e-07       1.15319922e-05      -2.36170790e-05 
       2.41582364e-07       1.15363228e-05      -2.36170821e-05 
       7.01976218e-07       1.15363235e-05      -2.36127546e-05 
      -2.43481969e-07       1.15319930e-05      -2.36127515e-05 
      -7.03875823e-07       1.15319922e-05      -2.36170790e-05 
       2.41582364e-07       1.15363228e-05      -2.36170821e-05 
       7.01976218e-07       1.15363235e-05      -2.36127546e-05 
      -2.48487570e-07       1.21795539e-05      -2.49428039e-05 
      -7.18114641e-07       1.21795532e-05      -2.49472365e-05 
       2.46557507e-07       1.21839889e-05      -2.49472398e-05 
       7.16184578e-07       1.21839897e-05      -2.49428072e-05 
      -2.48487570e-07       1.21795539e-05      -2.49428039e-05 
      -7.18114641e-07       1.21795532e-05      -2.49472365e-05 
       2.46557507e-07       1.21839889e-05      -2.49472398e-05 
       7.16184578e-07       1.21839897e-05      -2.49428072e-05 
      -2.53360412e-07       1.28397925e-05      -2.62992482e-05 
      -7.31961099e-07       1.28397917e-05      -2.63037858e-05 
       2.51399437e-07       1.28443326e-05      -2.63037892e-05 
       7.30000124e-07       1.28443334e-05      -2.62992516e-05 
      -2.53360412e-07       1.28397925e-05      -2.62992482e-05 
      -7.31961099e-07       1.28397917e-05      -2.63037858e-05 
       2.51399437e-07       1.28443326e-05      -2.63037892e-05 
       7.30000124e-07       1.28443334e-05      -2.62992516e-05 
      -2.58100489e-07       1.35123472e-05      -2.76813524e-05 
      -7.45415191e-07       1.35123463e-05      -2.76859951e-05 
       2.56108160e-07       1.35169924e-05      -2.76859986e-05 
       7.43422863e-07       1.35169932e-05      -2.76813559e-05 
      -2.58100489e-07       1.35123472e-05      -2.76813524e-05 
      -7.45415191e-07       1.35123463e-05      -2.76859951e-05 
       2.56108160e-07       1.35169924e-05      -2.76859986e-05 
       7.43422863e-07       1.35169932e-05      -2.76813559e-05 
      -2.62707793e-07       1.41968564e-05      -2.90883845e-05 
      -7.58476910e-07       1.41968555e-05      -2.90931322e-05 
       2.60683684e-07       1.42016068e-05      -2.90931359e-05 
       7.56452801e-07       1.42016076e-05      -2.90883881e-05 
      -2.62707793e-07       1.41968564e-05      -2.90883845e-05 
      -7.58476910e-07       1.41968555e-05      -2.90931322e-05 
       2.60683684e-07       1.42016068e-05      -2.90931359e-05 
       7.56452801e-07       1.42016076e-05      -2.90883881e-05 
      -2.67182320e-07       1.48929586e-05      -3.05196127e-05 
      -7.71146249e-07       1.48929578e-05      -3.05244655e-05 
       2.65126014e-07       1.48978142e-05      -3.05244692e-05 
       7.69089944e-07       1.48978151e-05      -3.05196164e-05 
      -2.67182320e-07       1.48929586e-05      -3.05196127e-05 
      -7.71146249e-07       1.48929578e-05      -3.05244655e-05 
       2.65126014e-07       1.48978142e-05      -3.05244692e-05 
       7.69089944e-07       1.48978151e-05      -3.05196164e-05 
      -2.71524060e-07       1.56002924e-05      -3.19743050e-05 
      -7.83423202e-07       1.56002915e-05      -3.19792628e-05 
       2.69435159e-07       1.56052531e-05      -3.19792667e-05 
       7.81334300e-07       1.56052540e-05      -3.19743088e-05 
      -2.71524060e-07       1.56002924e-05      -3.19743050e-05 
      -7.83423202e-07       1.56002915e-05      -3.19792628e-05 