# vtk DataFile Version 2.0
./output/onsasExample_BladeCantileverBeamPitch_windVel3DDynamic 3D/onsasExample_BladeCantileverBeamPitch_windVel3DDynamic 3D_0298.vtk
ASCII
DATASET UNSTRUCTURED_GRID

POINTS 800 float
      -6.081590e-24      -7.180703e-02      -7.180703e-02 
      -2.238160e-23       7.180703e-02      -7.180703e-02 
       6.081590e-24       7.180703e-02       7.180703e-02 
       2.238160e-23      -7.180703e-02       7.180703e-02 
       2.000000e-01      -7.180702e-02      -7.180706e-02 
       2.000000e-01       7.180705e-02      -7.180706e-02 
       2.000000e-01       7.180705e-02       7.180700e-02 
       2.000000e-01      -7.180702e-02       7.180700e-02 
       2.000000e-01      -7.180702e-02      -7.180706e-02 
       2.000000e-01       7.180705e-02      -7.180706e-02 
       2.000000e-01       7.180705e-02       7.180700e-02 
       2.000000e-01      -7.180702e-02       7.180700e-02 
       4.000000e-01      -7.180698e-02      -7.180715e-02 
       3.999999e-01       7.180709e-02      -7.180715e-02 
       4.000000e-01       7.180709e-02       7.180692e-02 
       4.000001e-01      -7.180698e-02       7.180692e-02 
       4.000000e-01      -7.180698e-02      -7.180715e-02 
       3.999999e-01       7.180709e-02      -7.180715e-02 
       4.000000e-01       7.180709e-02       7.180692e-02 
       4.000001e-01      -7.180698e-02       7.180692e-02 
       6.000000e-01      -7.180691e-02      -7.180729e-02 
       5.999999e-01       7.180716e-02      -7.180729e-02 
       6.000000e-01       7.180716e-02       7.180678e-02 
       6.000001e-01      -7.180691e-02       7.180678e-02 
       6.000000e-01      -7.180691e-02      -7.180729e-02 
       5.999999e-01       7.180716e-02      -7.180729e-02 
       6.000000e-01       7.180716e-02       7.180678e-02 
       6.000001e-01      -7.180691e-02       7.180678e-02 
       8.000000e-01      -7.180682e-02      -7.180749e-02 
       7.999999e-01       7.180725e-02      -7.180749e-02 
       8.000000e-01       7.180725e-02       7.180658e-02 
       8.000001e-01      -7.180681e-02       7.180658e-02 
       8.000000e-01      -7.180682e-02      -7.180749e-02 
       7.999999e-01       7.180725e-02      -7.180749e-02 
       8.000000e-01       7.180725e-02       7.180658e-02 
       8.000001e-01      -7.180681e-02       7.180658e-02 
       9.999999e-01      -7.180669e-02      -7.180774e-02 
       9.999999e-01       7.180737e-02      -7.180774e-02 
       1.000000e+00       7.180737e-02       7.180633e-02 
       1.000000e+00      -7.180669e-02       7.180633e-02 
       9.999999e-01      -7.180669e-02      -7.180774e-02 
       9.999999e-01       7.180737e-02      -7.180774e-02 
       1.000000e+00       7.180737e-02       7.180633e-02 
       1.000000e+00      -7.180669e-02       7.180633e-02 
       1.200000e+00      -7.180655e-02      -7.180804e-02 
       1.200000e+00       7.180752e-02      -7.180804e-02 
       1.200000e+00       7.180752e-02       7.180602e-02 
       1.200000e+00      -7.180655e-02       7.180602e-02 
       1.200000e+00      -7.180655e-02      -7.180804e-02 
       1.200000e+00       7.180752e-02      -7.180804e-02 
       1.200000e+00       7.180752e-02       7.180602e-02 
       1.200000e+00      -7.180655e-02       7.180602e-02 
       1.400000e+00      -7.180638e-02      -7.180840e-02 
       1.400000e+00       7.180769e-02      -7.180840e-02 
       1.400000e+00       7.180769e-02       7.180567e-02 
       1.400000e+00      -7.180638e-02       7.180567e-02 
       1.400000e+00      -7.180638e-02      -7.180840e-02 
       1.400000e+00       7.180769e-02      -7.180840e-02 
       1.400000e+00       7.180769e-02       7.180567e-02 
       1.400000e+00      -7.180638e-02       7.180567e-02 
       1.600000e+00      -7.180618e-02      -7.180881e-02 
       1.600000e+00       7.180788e-02      -7.180881e-02 
       1.600000e+00       7.180788e-02       7.180526e-02 
       1.600000e+00      -7.180618e-02       7.180526e-02 
       1.600000e+00      -7.180618e-02      -7.180881e-02 
       1.600000e+00       7.180788e-02      -7.180881e-02 
       1.600000e+00       7.180788e-02       7.180526e-02 
       1.600000e+00      -7.180618e-02       7.180526e-02 
       1.800000e+00      -7.180596e-02      -7.180926e-02 
       1.800000e+00       7.180810e-02      -7.180926e-02 
       1.800000e+00       7.180810e-02       7.180480e-02 
       1.800000e+00      -7.180596e-02       7.180480e-02 
       1.800000e+00      -7.180596e-02      -7.180926e-02 
       1.800000e+00       7.180810e-02      -7.180926e-02 
       1.800000e+00       7.180810e-02       7.180480e-02 
       1.800000e+00      -7.180596e-02       7.180480e-02 
       2.000000e+00      -7.180572e-02      -7.180977e-02 
       2.000000e+00       7.180834e-02      -7.180977e-02 
       2.000000e+00       7.180834e-02       7.180430e-02 
       2.000000e+00      -7.180572e-02       7.180430e-02 
       2.000000e+00      -7.180572e-02      -7.180977e-02 
       2.000000e+00       7.180834e-02      -7.180977e-02 
       2.000000e+00       7.180834e-02       7.180430e-02 
       2.000000e+00      -7.180572e-02       7.180430e-02 
       2.200000e+00      -7.180546e-02      -7.181032e-02 
       2.200000e+00       7.180861e-02      -7.181032e-02 
       2.200000e+00       7.180861e-02       7.180374e-02 
       2.200000e+00      -7.180546e-02       7.180375e-02 
       2.200000e+00      -7.180546e-02      -7.181032e-02 
       2.200000e+00       7.180861e-02      -7.181032e-02 
       2.200000e+00       7.180861e-02       7.180374e-02 
       2.200000e+00      -7.180546e-02       7.180375e-02 
       2.400000e+00      -7.180517e-02      -7.181092e-02 
       2.400000e+00       7.180889e-02      -7.181092e-02 
       2.400000e+00       7.180890e-02       7.180314e-02 
       2.400000e+00      -7.180517e-02       7.180315e-02 
       2.400000e+00      -7.180517e-02      -7.181092e-02 
       2.400000e+00       7.180889e-02      -7.181092e-02 
       2.400000e+00       7.180890e-02       7.180314e-02 
       2.400000e+00      -7.180517e-02       7.180315e-02 
       2.600000e+00      -7.180486e-02      -7.181156e-02 
       2.600000e+00       7.180920e-02      -7.181157e-02 
       2.600000e+00       7.180920e-02       7.180250e-02 
       2.600000e+00      -7.180486e-02       7.180250e-02 
       2.600000e+00      -7.180486e-02      -7.181156e-02 
       2.600000e+00       7.180920e-02      -7.181157e-02 
       2.600000e+00       7.180920e-02       7.180250e-02 
       2.600000e+00      -7.180486e-02       7.180250e-02 
       2.800000e+00      -7.180453e-02      -7.181225e-02 
       2.800000e+00       7.180953e-02      -7.181226e-02 
       2.800000e+00       7.180953e-02       7.180181e-02 
       2.800000e+00      -7.180453e-02       7.180181e-02 
       2.800000e+00      -7.180453e-02      -7.181225e-02 
       2.800000e+00       7.180953e-02      -7.181226e-02 
       2.800000e+00       7.180953e-02       7.180181e-02 
       2.800000e+00      -7.180453e-02       7.180181e-02 
       3.000000e+00      -7.180418e-02      -7.181299e-02 
       3.000000e+00       7.180988e-02      -7.181299e-02 
       3.000000e+00       7.180989e-02       7.180108e-02 
       3.000000e+00      -7.180418e-02       7.180108e-02 
       3.000000e+00      -7.180418e-02      -7.181299e-02 
       3.000000e+00       7.180988e-02      -7.181299e-02 
       3.000000e+00       7.180989e-02       7.180108e-02 
       3.000000e+00      -7.180418e-02       7.180108e-02 
       3.200000e+00      -7.180381e-02      -7.181376e-02 
       3.200000e+00       7.181025e-02      -7.181377e-02 
       3.200000e+00       7.181026e-02       7.180030e-02 
       3.200000e+00      -7.180381e-02       7.180030e-02 
       3.200000e+00      -7.180381e-02      -7.181376e-02 
       3.200000e+00       7.181025e-02      -7.181377e-02 
       3.200000e+00       7.181026e-02       7.180030e-02 
       3.200000e+00      -7.180381e-02       7.180030e-02 
       3.400000e+00      -7.180342e-02      -7.181458e-02 
       3.400000e+00       7.181064e-02      -7.181458e-02 
       3.400000e+00       7.181065e-02       7.179948e-02 
       3.400000e+00      -7.180342e-02       7.179948e-02 
       3.400000e+00      -7.180342e-02      -7.181458e-02 
       3.400000e+00       7.181064e-02      -7.181458e-02 
       3.400000e+00       7.181065e-02       7.179948e-02 
       3.400000e+00      -7.180342e-02       7.179948e-02 
       3.600000e+00      -7.180301e-02      -7.181544e-02 
       3.600000e+00       7.181105e-02      -7.181544e-02 
       3.600000e+00       7.181106e-02       7.179862e-02 
       3.600000e+00      -7.180301e-02       7.179862e-02 
       3.600000e+00      -7.180301e-02      -7.181544e-02 
       3.600000e+00       7.181105e-02      -7.181544e-02 
       3.600000e+00       7.181106e-02       7.179862e-02 
       3.600000e+00      -7.180301e-02       7.179862e-02 
       3.800000e+00      -7.180258e-02      -7.181634e-02 
       3.800000e+00       7.181148e-02      -7.181634e-02 
       3.800000e+00       7.181149e-02       7.179772e-02 
       3.800000e+00      -7.180258e-02       7.179773e-02 
       3.800000e+00      -7.180258e-02      -7.181634e-02 
       3.800000e+00       7.181148e-02      -7.181634e-02 
       3.800000e+00       7.181149e-02       7.179772e-02 
       3.800000e+00      -7.180258e-02       7.179773e-02 
       4.000000e+00      -7.180213e-02      -7.181728e-02 
       3.999999e+00       7.181193e-02      -7.181728e-02 
       4.000000e+00       7.181193e-02       7.179679e-02 
       4.000001e+00      -7.180213e-02       7.179679e-02 
       4.000000e+00      -7.180213e-02      -7.181728e-02 
       3.999999e+00       7.181193e-02      -7.181728e-02 
       4.000000e+00       7.181193e-02       7.179679e-02 
       4.000001e+00      -7.180213e-02       7.179679e-02 
       4.200000e+00      -7.180167e-02      -7.181825e-02 
[...]
POINT_DATA       800 
VECTORS Displacements float
      -6.08159033e-24       0.00000000e+00      -1.38777878e-17 
      -2.23815997e-23       0.00000000e+00       0.00000000e+00 
       6.08159033e-24       0.00000000e+00       1.38777878e-17 
       2.23815997e-23       0.00000000e+00       0.00000000e+00 
      -1.08157313e-08       1.38229298e-08      -2.88735582e-08 
      -3.07128590e-08       1.38229285e-08      -2.90248425e-08 
       1.07347023e-08       1.39742185e-08      -2.90248485e-08 
       3.06318299e-08       1.39742199e-08      -2.88735642e-08 
      -1.08157313e-08       1.38229298e-08      -2.88735582e-08 
      -3.07128590e-08       1.38229285e-08      -2.90248425e-08 
       1.07347023e-08       1.39742185e-08      -2.90248485e-08 
       3.06318299e-08       1.39742199e-08      -2.88735642e-08 
      -2.14383944e-08       5.50910669e-08      -1.14934909e-07 
      -6.08535750e-08       5.50910615e-08      -1.15237472e-07 
       2.12761438e-08       5.53936471e-08      -1.15237496e-07 
       6.06913245e-08       5.53936525e-08      -1.14934933e-07 
      -2.14383944e-08       5.50910669e-08      -1.14934909e-07 
      -6.08535750e-08       5.50910615e-08      -1.15237472e-07 
       2.12761438e-08       5.53936471e-08      -1.15237496e-07 
       6.06913245e-08       5.53936525e-08      -1.14934933e-07 
      -3.18679872e-08       1.23276504e-07      -2.57118136e-07 
      -9.04221463e-08       1.23276492e-07      -2.57571973e-07 
       3.16243266e-08       1.23730378e-07      -2.57572025e-07 
       9.01784856e-08       1.23730390e-07      -2.57118188e-07 
      -3.18679872e-08       1.23276504e-07      -2.57118136e-07 
      -9.04221463e-08       1.23276492e-07      -2.57571973e-07 
       3.16243266e-08       1.23730378e-07      -2.57572025e-07 
       9.01784856e-08       1.23730390e-07      -2.57118188e-07 
      -4.21045083e-08       2.17851333e-07      -4.54357322e-07 
      -1.19418571e-07       2.17851312e-07      -4.54962427e-07 
       4.17792523e-08       2.18456505e-07      -4.54962518e-07 
       1.19093315e-07       2.18456525e-07      -4.54357412e-07 
      -4.21045083e-08       2.17851333e-07      -4.54357322e-07 
      -1.19418571e-07       2.17851312e-07      -4.54962427e-07 
       4.17792523e-08       2.18456505e-07      -4.54962518e-07 
       1.19093315e-07       2.18456525e-07      -4.54357412e-07 
      -5.21479554e-08       3.38287648e-07      -7.05586549e-07 
      -1.47842847e-07       3.38287616e-07      -7.06342918e-07 
       5.17409227e-08       3.39044118e-07      -7.06343057e-07 
       1.47435815e-07       3.39044150e-07      -7.05586688e-07 
      -5.21479554e-08       3.38287648e-07      -7.05586549e-07 
      -1.47842847e-07       3.38287616e-07      -7.06342918e-07 
       5.17409227e-08       3.39044118e-07      -7.06343057e-07 
       1.47435815e-07       3.39044150e-07      -7.05586688e-07 
      -6.19983276e-08       4.84057540e-07      -1.00973990e-06 
      -1.75694974e-07       4.84057495e-07      -1.01064753e-06 
       6.15093396e-08       4.84965312e-07      -1.01064773e-06 
       1.75205986e-07       4.84965357e-07      -1.00974010e-06 
      -6.19983276e-08       4.84057540e-07      -1.00973990e-06 
      -1.75694974e-07       4.84057495e-07      -1.01064753e-06 
       6.15093396e-08       4.84965312e-07      -1.01064773e-06 
       1.75205986e-07       4.84965357e-07      -1.00974010e-06 
      -7.16556217e-08       6.54633103e-07      -1.36575146e-06 
      -2.02974948e-07       6.54633043e-07      -1.36681034e-06 
       7.10845052e-08       6.55692179e-07      -1.36681061e-06 
       2.02403831e-07       6.55692239e-07      -1.36575172e-06 
      -7.16556217e-08       6.54633103e-07      -1.36575146e-06 
      -2.02974948e-07       6.54633043e-07      -1.36681034e-06 
       7.10845052e-08       6.55692179e-07      -1.36681061e-06 
       2.02403831e-07       6.55692239e-07      -1.36575172e-06 
      -8.11198375e-08       8.49486429e-07      -1.77255531e-06 
      -2.29682769e-07       8.49486352e-07      -1.77376545e-06 
       8.04664204e-08       8.50696810e-07      -1.77376578e-06 
       2.29029352e-07       8.50696887e-07      -1.77255564e-06 
      -8.11198375e-08       8.49486429e-07      -1.77255531e-06 
      -2.29682769e-07       8.49486352e-07      -1.77376545e-06 
       8.04664204e-08       8.50696810e-07      -1.77376578e-06 
       2.29029352e-07       8.50696887e-07      -1.77255564e-06 
      -9.03909716e-08       1.06808961e-06      -2.22908553e-06 
      -2.55818434e-07       1.06808952e-06      -2.23044692e-06 
       8.96550880e-08       1.06945130e-06      -2.23044733e-06 
       2.55082550e-07       1.06945139e-06      -2.22908595e-06 
      -9.03909716e-08       1.06808961e-06      -2.22908553e-06 
      -2.55818434e-07       1.06808952e-06      -2.23044692e-06 
       8.96550880e-08       1.06945130e-06      -2.23044733e-06 
       2.55082550e-07       1.06945139e-06      -2.22908595e-06 
      -9.94690237e-08       1.30991474e-06      -2.73427621e-06 
      -2.81381942e-07       1.30991463e-06      -2.73578884e-06 
       9.86505087e-08       1.31142774e-06      -2.73578934e-06 
       2.80563427e-07       1.31142785e-06      -2.73427671e-06 
      -9.94690237e-08       1.30991474e-06      -2.73427621e-06 
      -2.81381942e-07       1.30991463e-06      -2.73578884e-06 
       9.86505091e-08       1.31142774e-06      -2.73578934e-06 
       2.80563427e-07       1.31142785e-06      -2.73427671e-06 
      -1.08347258e-07       1.57445124e-06      -3.28708659e-06 
      -3.06386529e-07       1.57445110e-06      -3.28873450e-06 
       1.07476145e-07       1.57609958e-06      -3.28873509e-06 
       3.05515417e-07       1.57609972e-06      -3.28708718e-06 
      -1.08347258e-07       1.57445124e-06      -3.28708659e-06 
      -3.06386529e-07       1.57445110e-06      -3.28873450e-06 
       1.07476145e-07       1.57609958e-06      -3.28873509e-06 
       3.05515417e-07       1.57609972e-06      -3.28708718e-06 
      -1.17048982e-07       1.86120905e-06      -3.88652695e-06 
      -3.30874828e-07       1.86120889e-06      -3.88831013e-06 
       1.16124841e-07       1.86299274e-06      -3.88831083e-06 
       3.29950688e-07       1.86299290e-06      -3.88652765e-06 
      -1.17048982e-07       1.86120905e-06      -3.88652695e-06 
      -3.30874828e-07       1.86120889e-06      -3.88831013e-06 
       1.16124841e-07       1.86299274e-06      -3.88831083e-06 
       3.29950688e-07       1.86299290e-06      -3.88652765e-06 
      -1.25574191e-07       2.16971499e-06      -4.53163190e-06 
      -3.54846835e-07       2.16971480e-06      -4.53355035e-06 
       1.24596600e-07       2.17163402e-06      -4.53355115e-06 
       3.53869245e-07       2.17163420e-06      -4.53163270e-06 
      -1.25574191e-07       2.16971499e-06      -4.53163190e-06 
      -3.54846835e-07       2.16971480e-06      -4.53355035e-06 
       1.24596600e-07       2.17163402e-06      -4.53355115e-06 
       3.53869245e-07       2.17163420e-06      -4.53163270e-06 
      -1.33922879e-07       2.49949587e-06      -5.22143601e-06 
      -3.78302543e-07       2.49949566e-06      -5.22348973e-06 
       1.32891428e-07       2.50155025e-06      -5.22349064e-06 
       3.77271092e-07       2.50155046e-06      -5.22143692e-06 
      -1.33922879e-07       2.49949587e-06      -5.22143601e-06 
      -3.78302543e-07       2.49949566e-06      -5.22348973e-06 
       1.32891428e-07       2.50155025e-06      -5.22349064e-06 
       3.77271092e-07       2.50155046e-06      -5.22143692e-06 
      -1.42095043e-07       2.85007852e-06      -5.95497389e-06 
      -4.01241950e-07       2.85007828e-06      -5.95716288e-06 
       1.41009327e-07       2.85226825e-06      -5.95716390e-06 
       4.00156234e-07       2.85226848e-06      -5.95497492e-06 
      -1.42095043e-07       2.85007852e-06      -5.95497389e-06 
      -4.01241950e-07       2.85007828e-06      -5.95716288e-06 
       1.41009327e-07       2.85226825e-06      -5.95716390e-06 
       4.00156234e-07       2.85226848e-06      -5.95497492e-06 
      -1.50090678e-07       3.22098975e-06      -6.73128014e-06 
      -4.23665050e-07       3.22098949e-06      -6.73360439e-06 
       1.48950304e-07       3.22331483e-06      -6.73360553e-06 
       4.22524675e-07       3.22331509e-06      -6.73128128e-06 
      -1.50090678e-07       3.22098975e-06      -6.73128014e-06 
      -4.23665050e-07       3.22098949e-06      -6.73360439e-06 
       1.48950304e-07       3.22331483e-06      -6.73360553e-06 
       4.22524675e-07       3.22331509e-06      -6.73128128e-06 
      -1.57909779e-07       3.61175638e-06      -7.54938934e-06 
      -4.45571839e-07       3.61175609e-06      -7.55184885e-06 
       1.56714362e-07       3.61421681e-06      -7.55185011e-06 
       4.44376421e-07       3.61421710e-06      -7.54939060e-06 
      -1.57909779e-07       3.61175638e-06      -7.54938934e-06 
      -4.45571839e-07       3.61175609e-06      -7.55184885e-06 
       1.56714362e-07       3.61421681e-06      -7.55185011e-06 
       4.44376421e-07       3.61421710e-06      -7.54939060e-06 
      -1.65552344e-07       4.02190523e-06      -8.40833609e-06 
      -4.66962313e-07       4.02190492e-06      -8.41093086e-06 
       1.64301505e-07       4.02450101e-06      -8.41093225e-06 
       4.65711474e-07       4.02450133e-06      -8.40833747e-06 
      -1.65552344e-07       4.02190523e-06      -8.40833609e-06 
      -4.66962313e-07       4.02190492e-06      -8.41093086e-06 
       1.64301505e-07       4.02450101e-06      -8.41093225e-06 
       4.65711474e-07       4.02450133e-06      -8.40833747e-06 
      -1.73018365e-07       4.45096312e-06      -9.30715498e-06 
      -4.87836466e-07       4.45096278e-06      -9.30988501e-06 
       1.71711740e-07       4.45369426e-06      -9.30988652e-06 
       4.86529841e-07       4.45369460e-06      -9.30715649e-06 
      -1.73018365e-07       4.45096312e-06      -9.30715498e-06 
      -4.87836466e-07       4.45096278e-06      -9.30988501e-06 
       1.71711740e-07       4.45369426e-06      -9.30988652e-06 
       4.86529841e-07       4.45369460e-06      -9.30715649e-06 
      -1.80307840e-07       4.89845687e-06      -1.02448806e-05 
      -5.08194296e-07       4.89845650e-06      -1.02477459e-05 
       1.78945069e-07       4.90132336e-06      -1.02477475e-05 
       5.06831524e-07       4.90132373e-06      -1.02448822e-05 
      -1.80307841e-07       4.89845687e-06      -1.02448806e-05 
      -5.08194296e-07       4.89845650e-06      -1.02477459e-05 
       1.78945069e-07       4.90132336e-06      -1.02477475e-05 
       5.06831524e-07       4.90132373e-06      -1.02448822e-05 
      -1.87417925e-07       5.36393033e-06      -1.12205716e-05 
      -5.28052482e-07       5.36392992e-06      -1.12235562e-05 
       1.86020007e-07       5.36691622e-06      -1.12235580e-05 
       5.26654564e-07       5.36691662e-06      -1.12205734e-05 
      -1.87417925e-07       5.36393033e-06      -1.12205716e-05 
      -5.28052482e-07       5.36392992e-06      -1.12235562e-05 
       1.86020007e-07       5.36691622e-06      -1.12235580e-05 
       5.26654564e-07       5.36691662e-06      -1.12205734e-05 
      -1.94368387e-07       5.84694770e-06      -1.22333382e-05 
      -5.47450377e-07       5.84694726e-06      -1.22364421e-05 
       1.92934808e-07       5.85005299e-06      -1.22364440e-05 
       5.46016798e-07       5.85005343e-06      -1.22333401e-05 
      -1.94368387e-07       5.84694770e-06      -1.22333382e-05 
      -5.47450377e-07       5.84694726e-06      -1.22364421e-05 
       1.92934808e-07       5.85005299e-06      -1.22364440e-05 
       5.46016798e-07       5.85005343e-06      -1.22333401e-05 
      -2.01159222e-07       6.34709026e-06      -1.32823164e-05 
      -5.66387976e-07       6.34708980e-06      -1.32855397e-05 
       1.99689481e-07       6.35031497e-06      -1.32855417e-05 
       5.64918235e-07       6.35031543e-06      -1.32823185e-05 
      -2.01159222e-07       6.34709026e-06      -1.32823164e-05 
      -5.66387976e-07       6.34708980e-06      -1.32855397e-05 
       1.99689481e-07       6.35031497e-06      -1.32855417e-05 
       5.64918235e-07       6.35031543e-06      -1.32823185e-05 
      -2.07790423e-07       6.86393931e-06      -1.43666423e-05 
      -5.84865272e-07       6.86393882e-06      -1.43699848e-05 
       2.06284029e-07       6.86728343e-06      -1.43699870e-05 
       5.83358878e-07       6.86728392e-06      -1.43666445e-05 
      -2.07790423e-07       6.86393931e-06      -1.43666423e-05 
      -5.84865272e-07       6.86393882e-06      -1.43699848e-05 
       2.06284029e-07       6.86728343e-06      -1.43699870e-05 
       5.83358878e-07       6.86728392e-06      -1.43666445e-05 
      -2.14261985e-07       7.39707613e-06      -1.54854517e-05 
      -6.02882260e-07       7.39707560e-06      -1.54889135e-05 
       2.12718459e-07       7.40053965e-06      -1.54889158e-05 
       6.01338734e-07       7.40054017e-06      -1.54854540e-05 
      -2.14261985e-07       7.39707613e-06      -1.54854517e-05 
      -6.02882260e-07       7.39707560e-06      -1.54889135e-05 
       2.12718459e-07       7.40053965e-06      -1.54889158e-05 
       6.01338734e-07       7.40054017e-06      -1.54854540e-05 
      -2.20573901e-07       7.94608198e-06      -1.66378806e-05 
      -6.20438934e-07       7.94608143e-06      -1.66414618e-05 
       2.18992777e-07       7.94966491e-06      -1.66414642e-05 
       6.18857809e-07       7.94966547e-06      -1.66378831e-05 
      -2.20573901e-07       7.94608198e-06      -1.66378806e-05 
      -6.20438934e-07       7.94608143e-06      -1.66414618e-05 
       2.18992777e-07       7.94966491e-06      -1.66414642e-05 
       6.18857809e-07       7.94966547e-06      -1.66378831e-05 
      -2.26726165e-07       8.51053817e-06      -1.78230651e-05 
      -6.37535287e-07       8.51053758e-06      -1.78267656e-05 
       2.25106989e-07       8.51424051e-06      -1.78267682e-05 
       6.35916111e-07       8.51424109e-06      -1.78230677e-05 
      -2.26726165e-07       8.51053817e-06      -1.78230651e-05 
      -6.37535287e-07       8.51053758e-06      -1.78267656e-05 
       2.25106989e-07       8.51424051e-06      -1.78267682e-05 
       6.35916111e-07       8.51424109e-06      -1.78230677e-05 
      -2.32718771e-07       9.09002596e-06      -1.90401411e-05 
      -6.54171312e-07       9.09002534e-06      -1.90439609e-05 
       2.31061103e-07       9.09384771e-06      -1.90439636e-05 
       6.52513643e-07       9.09384833e-06      -1.90401439e-05 
      -2.32718771e-07       9.09002596e-06      -1.90401411e-05 
      -6.54171312e-07       9.09002534e-06      -1.90439609e-05 
       2.31061103e-07       9.09384771e-06      -1.90439636e-05 
       6.52513643e-07       9.09384833e-06      -1.90401439e-05 
      -2.38551714e-07       9.68412665e-06      -2.02882446e-05 
      -6.70347005e-07       9.68412600e-06      -2.02921837e-05 
       2.36855121e-07       9.68806780e-06      -2.02921866e-05 
       6.68650412e-07       9.68806845e-06      -2.02882475e-05 
      -2.38551714e-07       9.68412665e-06      -2.02882446e-05 
      -6.70347005e-07       9.68412600e-06      -2.02921837e-05 
       2.36855121e-07       9.68806780e-06      -2.02921866e-05 
       6.68650412e-07       9.68806845e-06      -2.02882475e-05 
      -2.44224988e-07       1.02924215e-05      -2.15665116e-05 
      -6.86062361e-07       1.02924208e-05      -2.15705700e-05 
       2.42489052e-07       1.02964821e-05      -2.15705730e-05 
       6.84326425e-07       1.02964827e-05      -2.15665146e-05 
      -2.44224988e-07       1.02924215e-05      -2.15665116e-05 
      -6.86062361e-07       1.02924208e-05      -2.15705700e-05 
       2.42489052e-07       1.02964821e-05      -2.15705730e-05 
       6.84326425e-07       1.02964827e-05      -2.15665146e-05 
      -2.49739565e-07       1.09145088e-05      -2.28741022e-05 
      -7.01337816e-07       1.09145081e-05      -2.28782640e-05 
       2.47978198e-07       1.09186728e-05      -2.28782671e-05 
       6.99576449e-07       1.09186735e-05      -2.28741053e-05 
      -2.49739565e-07       1.09145088e-05      -2.28741022e-05 
      -7.01337816e-07       1.09145081e-05      -2.28782640e-05 
       2.47978198e-07       1.09186728e-05      -2.28782671e-05 
       6.99576449e-07       1.09186735e-05      -2.28741053e-05 
      -2.55112483e-07       1.15500073e-05      -2.42102304e-05 
      -7.16210225e-07       1.15500065e-05      -2.42144955e-05 
       2.53325187e-07       1.15542748e-05      -2.42144988e-05 
       7.14422929e-07       1.15542755e-05      -2.42102336e-05 
      -2.55112483e-07       1.15500073e-05      -2.42102304e-05 
      -7.16210225e-07       1.15500065e-05      -2.42144955e-05 
       2.53325187e-07       1.15542748e-05      -2.42144988e-05 
       7.14422929e-07       1.15542755e-05      -2.42102336e-05 
      -2.60343736e-07       1.21985529e-05      -2.55741369e-05 
      -7.30679581e-07       1.21985522e-05      -2.55785054e-05 
       2.58530027e-07       1.22029239e-05      -2.55785088e-05 
       7.28865872e-07       1.22029247e-05      -2.55741403e-05 
      -2.60343736e-07       1.21985529e-05      -2.55741369e-05 
      -7.30679581e-07       1.21985522e-05      -2.55785054e-05 
       2.58530027e-07       1.22029239e-05      -2.55785088e-05 
       7.28865872e-07       1.22029247e-05      -2.55741403e-05 
      -2.65433318e-07       1.28597818e-05      -2.69650624e-05 
      -7.44745877e-07       1.28597810e-05      -2.69695343e-05 
       2.63592723e-07       1.28642562e-05      -2.69695379e-05 
       7.42905283e-07       1.28642570e-05      -2.69650660e-05 
      -2.65433318e-07       1.28597818e-05      -2.69650624e-05 
      -7.44745877e-07       1.28597810e-05      -2.69695343e-05 
       2.63592723e-07       1.28642562e-05      -2.69695379e-05 
       7.42905283e-07       1.28642570e-05      -2.69650660e-05 
      -2.70381221e-07       1.35333297e-05      -2.83822478e-05 
      -7.58409109e-07       1.35333289e-05      -2.83868231e-05 
       2.68513283e-07       1.35379077e-05      -2.83868268e-05 
       7.56541169e-07       1.35379085e-05      -2.83822515e-05 
      -2.70381221e-07       1.35333297e-05      -2.83822478e-05 
      -7.58409109e-07       1.35333289e-05      -2.83868231e-05 
       2.68513283e-07       1.35379077e-05      -2.83868268e-05 
       7.56541169e-07       1.35379085e-05      -2.83822515e-05 
      -2.75187441e-07       1.42188329e-05      -2.98249338e-05 
      -7.71669268e-07       1.42188320e-05      -2.98296124e-05 
       2.73291712e-07       1.42235142e-05      -2.98296162e-05 
       7.69773539e-07       1.42235151e-05      -2.98249376e-05 
      -2.75187441e-07       1.42188329e-05      -2.98249338e-05 
      -7.71669268e-07       1.42188320e-05      -2.98296124e-05 
       2.73291712e-07       1.42235142e-05      -2.98296162e-05 
       7.69773539e-07       1.42235151e-05      -2.98249376e-05 
      -2.79851968e-07       1.49159271e-05      -3.12923610e-05 
      -7.84526347e-07       1.49159262e-05      -3.12971430e-05 
       2.77928018e-07       1.49207120e-05      -3.12971470e-05 
       7.82602397e-07       1.49207129e-05      -3.12923649e-05 
      -2.79851968e-07       1.49159271e-05      -3.12923610e-05 
      -7.84526347e-07       1.49159262e-05      -3.12971430e-05 
       2.77928018e-07       1.49207120e-05      -3.12971470e-05 
       7.82602397e-07       1.49207129e-05      -3.12923649e-05 
      -2.84374796e-07       1.56242485e-05      -3.27837703e-05 
      -7.96980340e-07       1.56242476e-05      -3.27886557e-05 
       2.82422210e-07       1.56291368e-05      -3.27886597e-05 
       7.95027753e-07       1.56291377e-05      -3.27837743e-05 
      -2.84374796e-07       1.56242485e-05      -3.27837703e-05 
      -7.96980340e-07       1.56242476e-05      -3.27886557e-05 