# vtk DataFile Version 2.0
./output/onsasExample_BladeCantileverBeamPitch_windVel3DDynamic 3D/onsasExample_BladeCantileverBeamPitch_windVel3DDynamic 3D_0026.vtk
ASCII
DATASET UNSTRUCTURED_GRID

POINTS 800 float
      -1.968152e-23      -7.180703e-02      -7.180703e-02 
      -1.958445e-23       7.180703e-02      -7.180703e-02 
       1.968152e-23       7.180703e-02       7.180703e-02 
       1.958445e-23      -7.180703e-02       7.180703e-02 
       2.000000e-01      -7.180702e-02      -7.180706e-02 
       2.000000e-01       7.180705e-02      -7.180706e-02 
       2.000000e-01       7.180705e-02       7.180701e-02 
       2.000000e-01      -7.180702e-02       7.180701e-02 
       2.000000e-01      -7.180702e-02      -7.180706e-02 
       2.000000e-01       7.180705e-02      -7.180706e-02 
       2.000000e-01       7.180705e-02       7.180701e-02 
       2.000000e-01      -7.180702e-02       7.180701e-02 
       4.000000e-01      -7.180698e-02      -7.180713e-02 
       3.999999e-01       7.180709e-02      -7.180713e-02 
       4.000000e-01       7.180709e-02       7.180694e-02 
       4.000001e-01      -7.180698e-02       7.180694e-02 
       4.000000e-01      -7.180698e-02      -7.180713e-02 
       3.999999e-01       7.180709e-02      -7.180713e-02 
       4.000000e-01       7.180709e-02       7.180694e-02 
       4.000001e-01      -7.180698e-02       7.180694e-02 
       6.000000e-01      -7.180691e-02      -7.180724e-02 
       5.999999e-01       7.180715e-02      -7.180724e-02 
       6.000000e-01       7.180715e-02       7.180682e-02 
       6.000001e-01      -7.180691e-02       7.180682e-02 
       6.000000e-01      -7.180691e-02      -7.180724e-02 
       5.999999e-01       7.180715e-02      -7.180724e-02 
       6.000000e-01       7.180715e-02       7.180682e-02 
       6.000001e-01      -7.180691e-02       7.180682e-02 
       8.000000e-01      -7.180682e-02      -7.180740e-02 
       7.999999e-01       7.180725e-02      -7.180740e-02 
       8.000000e-01       7.180725e-02       7.180666e-02 
       8.000001e-01      -7.180682e-02       7.180666e-02 
       8.000000e-01      -7.180682e-02      -7.180740e-02 
       7.999999e-01       7.180725e-02      -7.180740e-02 
       8.000000e-01       7.180725e-02       7.180666e-02 
       8.000001e-01      -7.180682e-02       7.180666e-02 
       1.000000e+00      -7.180670e-02      -7.180761e-02 
       9.999999e-01       7.180737e-02      -7.180761e-02 
       1.000000e+00       7.180737e-02       7.180646e-02 
       1.000000e+00      -7.180670e-02       7.180646e-02 
       1.000000e+00      -7.180670e-02      -7.180761e-02 
       9.999999e-01       7.180737e-02      -7.180761e-02 
       1.000000e+00       7.180737e-02       7.180646e-02 
       1.000000e+00      -7.180670e-02       7.180646e-02 
       1.200000e+00      -7.180656e-02      -7.180786e-02 
       1.200000e+00       7.180751e-02      -7.180786e-02 
       1.200000e+00       7.180751e-02       7.180621e-02 
       1.200000e+00      -7.180656e-02       7.180621e-02 
       1.200000e+00      -7.180656e-02      -7.180786e-02 
       1.200000e+00       7.180751e-02      -7.180786e-02 
       1.200000e+00       7.180751e-02       7.180621e-02 
       1.200000e+00      -7.180656e-02       7.180621e-02 
       1.400000e+00      -7.180639e-02      -7.180815e-02 
       1.400000e+00       7.180768e-02      -7.180815e-02 
       1.400000e+00       7.180768e-02       7.180592e-02 
       1.400000e+00      -7.180639e-02       7.180592e-02 
       1.400000e+00      -7.180639e-02      -7.180815e-02 
       1.400000e+00       7.180768e-02      -7.180815e-02 
       1.400000e+00       7.180768e-02       7.180592e-02 
       1.400000e+00      -7.180639e-02       7.180592e-02 
       1.600000e+00      -7.180620e-02      -7.180848e-02 
       1.600000e+00       7.180787e-02      -7.180848e-02 
       1.600000e+00       7.180787e-02       7.180559e-02 
       1.600000e+00      -7.180620e-02       7.180559e-02 
       1.600000e+00      -7.180620e-02      -7.180848e-02 
       1.600000e+00       7.180787e-02      -7.180848e-02 
       1.600000e+00       7.180787e-02       7.180559e-02 
       1.600000e+00      -7.180620e-02       7.180559e-02 
       1.800000e+00      -7.180598e-02      -7.180885e-02 
       1.800000e+00       7.180808e-02      -7.180885e-02 
       1.800000e+00       7.180808e-02       7.180522e-02 
       1.800000e+00      -7.180598e-02       7.180522e-02 
       1.800000e+00      -7.180598e-02      -7.180885e-02 
       1.800000e+00       7.180808e-02      -7.180885e-02 
       1.800000e+00       7.180808e-02       7.180522e-02 
       1.800000e+00      -7.180598e-02       7.180522e-02 
       2.000000e+00      -7.180575e-02      -7.180926e-02 
       2.000000e+00       7.180832e-02      -7.180926e-02 
       2.000000e+00       7.180832e-02       7.180481e-02 
       2.000000e+00      -7.180575e-02       7.180481e-02 
       2.000000e+00      -7.180575e-02      -7.180926e-02 
       2.000000e+00       7.180832e-02      -7.180926e-02 
       2.000000e+00       7.180832e-02       7.180481e-02 
       2.000000e+00      -7.180575e-02       7.180481e-02 
       2.200000e+00      -7.180549e-02      -7.180971e-02 
       2.200000e+00       7.180858e-02      -7.180971e-02 
       2.200000e+00       7.180858e-02       7.180436e-02 
       2.200000e+00      -7.180549e-02       7.180436e-02 
       2.200000e+00      -7.180549e-02      -7.180971e-02 
       2.200000e+00       7.180858e-02      -7.180971e-02 
       2.200000e+00       7.180858e-02       7.180436e-02 
       2.200000e+00      -7.180549e-02       7.180436e-02 
       2.400000e+00      -7.180521e-02      -7.181019e-02 
       2.400000e+00       7.180886e-02      -7.181019e-02 
       2.400000e+00       7.180886e-02       7.180387e-02 
       2.400000e+00      -7.180521e-02       7.180388e-02 
       2.400000e+00      -7.180521e-02      -7.181019e-02 
       2.400000e+00       7.180886e-02      -7.181019e-02 
       2.400000e+00       7.180886e-02       7.180387e-02 
       2.400000e+00      -7.180521e-02       7.180388e-02 
       2.600000e+00      -7.180490e-02      -7.181071e-02 
       2.600000e+00       7.180916e-02      -7.181071e-02 
       2.600000e+00       7.180916e-02       7.180335e-02 
       2.600000e+00      -7.180490e-02       7.180335e-02 
       2.600000e+00      -7.180490e-02      -7.181071e-02 
       2.600000e+00       7.180916e-02      -7.181071e-02 
       2.600000e+00       7.180916e-02       7.180335e-02 
       2.600000e+00      -7.180490e-02       7.180335e-02 
       2.800000e+00      -7.180458e-02      -7.181127e-02 
       2.800000e+00       7.180948e-02      -7.181127e-02 
       2.800000e+00       7.180949e-02       7.180279e-02 
       2.800000e+00      -7.180458e-02       7.180280e-02 
       2.800000e+00      -7.180458e-02      -7.181127e-02 
       2.800000e+00       7.180948e-02      -7.181127e-02 
       2.800000e+00       7.180949e-02       7.180279e-02 
       2.800000e+00      -7.180458e-02       7.180280e-02 
       3.000000e+00      -7.180424e-02      -7.181186e-02 
       3.000000e+00       7.180983e-02      -7.181186e-02 
       3.000000e+00       7.180983e-02       7.180220e-02 
       3.000000e+00      -7.180424e-02       7.180220e-02 
       3.000000e+00      -7.180424e-02      -7.181186e-02 
       3.000000e+00       7.180983e-02      -7.181186e-02 
       3.000000e+00       7.180983e-02       7.180220e-02 
       3.000000e+00      -7.180424e-02       7.180220e-02 
       3.200000e+00      -7.180387e-02      -7.181249e-02 
       3.200000e+00       7.181019e-02      -7.181249e-02 
       3.200000e+00       7.181019e-02       7.180158e-02 
       3.200000e+00      -7.180387e-02       7.180158e-02 
       3.200000e+00      -7.180387e-02      -7.181249e-02 
       3.200000e+00       7.181019e-02      -7.181249e-02 
       3.200000e+00       7.181019e-02       7.180158e-02 
       3.200000e+00      -7.180387e-02       7.180158e-02 
       3.400000e+00      -7.180349e-02      -7.181315e-02 
       3.400000e+00       7.181057e-02      -7.181315e-02 
       3.400000e+00       7.181058e-02       7.180092e-02 
       3.400000e+00      -7.180349e-02       7.180092e-02 
       3.400000e+00      -7.180349e-02      -7.181315e-02 
       3.400000e+00       7.181057e-02      -7.181315e-02 
       3.400000e+00       7.181058e-02       7.180092e-02 
       3.400000e+00      -7.180349e-02       7.180092e-02 
       3.600000e+00      -7.180309e-02      -7.181384e-02 
       3.600000e+00       7.181098e-02      -7.181384e-02 
       3.600000e+00       7.181098e-02       7.180023e-02 
       3.600000e+00      -7.180309e-02       7.180023e-02 
       3.600000e+00      -7.180309e-02      -7.181384e-02 
       3.600000e+00       7.181098e-02      -7.181384e-02 
       3.600000e+00       7.181098e-02       7.180023e-02 
       3.600000e+00      -7.180309e-02       7.180023e-02 
       3.800000e+00      -7.180267e-02      -7.181456e-02 
       3.800000e+00       7.181140e-02      -7.181456e-02 
       3.800000e+00       7.181140e-02       7.179950e-02 
       3.800000e+00      -7.180267e-02       7.179951e-02 
       3.800000e+00      -7.180267e-02      -7.181456e-02 
       3.800000e+00       7.181140e-02      -7.181456e-02 
       3.800000e+00       7.181140e-02       7.179950e-02 
       3.800000e+00      -7.180267e-02       7.179951e-02 
       4.000000e+00      -7.180223e-02      -7.181531e-02 
       4.000000e+00       7.181183e-02      -7.181532e-02 
       4.000000e+00       7.181184e-02       7.179875e-02 
       4.000000e+00      -7.180223e-02       7.179875e-02 
       4.000000e+00      -7.180223e-02      -7.181531e-02 
       4.000000e+00       7.181183e-02      -7.181532e-02 
       4.000000e+00       7.181184e-02       7.179875e-02 
       4.000000e+00      -7.180223e-02       7.179875e-02 
       4.200000e+00      -7.180178e-02      -7.181610e-02 
[...]
POINT_DATA       800 
VECTORS Displacements float
      -1.96815155e-23       0.00000000e+00       0.00000000e+00 
      -1.95844503e-23       1.38777878e-17       1.38777878e-17 
       1.96815155e-23       0.00000000e+00       0.00000000e+00 
       1.95844503e-23      -1.38777878e-17      -1.38777878e-17 
      -7.21650081e-09       1.35763007e-08      -2.36064584e-08 
      -2.67596869e-08       1.35762994e-08      -2.37578834e-08 
       7.13695078e-09       1.37277290e-08      -2.37578874e-08 
       2.66801369e-08       1.37277303e-08      -2.36064624e-08 
      -7.21650081e-09       1.35763007e-08      -2.36064584e-08 
      -2.67596869e-08       1.35762994e-08      -2.37578834e-08 
       7.13695078e-09       1.37277290e-08      -2.37578874e-08 
       2.66801369e-08       1.37277303e-08      -2.36064624e-08 
      -1.42792694e-08       5.41055384e-08      -9.39405878e-08 
      -5.29874798e-08       5.41055332e-08      -9.42434333e-08 
       1.41200306e-08       5.44083968e-08      -9.42434490e-08 
       5.28282410e-08       5.44084020e-08      -9.39406034e-08 
      -1.42792694e-08       5.41055384e-08      -9.39405878e-08 
      -5.29874798e-08       5.41055332e-08      -9.42434333e-08 
       1.41200306e-08       5.44083968e-08      -9.42434490e-08 
       5.28282410e-08       5.44084020e-08      -9.39406034e-08 
      -2.11883043e-08       1.21061077e-07      -2.10047377e-07 
      -7.86833774e-08       1.21061065e-07      -2.10501639e-07 
       2.09492409e-08       1.21515367e-07      -2.10501674e-07 
       7.84443139e-08       1.21515379e-07      -2.10047412e-07 
      -2.11883043e-08       1.21061077e-07      -2.10047377e-07 
      -7.86833774e-08       1.21061065e-07      -2.10501639e-07 
       2.09492409e-08       1.21515367e-07      -2.10501674e-07 
       7.84443139e-08       1.21515379e-07      -2.10047412e-07 
      -2.79436040e-08       2.13916280e-07      -3.70971817e-07 
      -1.03847378e-07       2.13916260e-07      -3.71577491e-07 
       2.76245832e-08       2.14522004e-07      -3.71577551e-07 
       1.03528357e-07       2.14522024e-07      -3.70971877e-07 
      -2.79436040e-08       2.13916280e-07      -3.70971817e-07 
      -1.03847378e-07       2.13916260e-07      -3.71577491e-07 
       2.76245832e-08       2.14522004e-07      -3.71577551e-07 
       1.03528357e-07       2.14522024e-07      -3.70971877e-07 
      -3.45451672e-08       3.32144512e-07      -5.75758895e-07 
      -1.28479480e-07       3.32144481e-07      -5.76515978e-07 
       3.41460589e-08       3.32901671e-07      -5.76516070e-07 
       1.28080372e-07       3.32901702e-07      -5.75758987e-07 
      -3.45451672e-08       3.32144512e-07      -5.75758895e-07 
      -1.28479480e-07       3.32144481e-07      -5.76515978e-07 
       3.41460589e-08       3.32901671e-07      -5.76516070e-07 
       1.28080372e-07       3.32901702e-07      -5.75758987e-07 
      -4.09929928e-08       4.75219137e-07      -8.23453601e-07 
      -1.52579683e-07       4.75219093e-07      -8.24362090e-07 
       4.05136689e-08       4.76127732e-07      -8.24362219e-07 
       1.52100359e-07       4.76127775e-07      -8.23453731e-07 
      -4.09929928e-08       4.75219137e-07      -8.23453601e-07 
      -1.52579683e-07       4.75219093e-07      -8.24362090e-07 
       4.05136689e-08       4.76127732e-07      -8.24362219e-07 
       1.52100359e-07       4.76127775e-07      -8.23453731e-07 
      -4.72870789e-08       6.42613518e-07      -1.11310092e-06 
      -1.76147984e-07       6.42613460e-07      -1.11416082e-06 
       4.67274153e-08       6.43673551e-07      -1.11416099e-06 
       1.75588321e-07       6.43673609e-07      -1.11310110e-06 
      -4.72870789e-08       6.42613518e-07      -1.11310092e-06 
      -1.76147984e-07       6.42613460e-07      -1.11416082e-06 
       4.67274153e-08       6.43673551e-07      -1.11416099e-06 
       1.75588321e-07       6.43673609e-07      -1.11310110e-06 
      -5.34274243e-08       8.33801019e-07      -1.44374586e-06 
      -1.99184384e-07       8.33800945e-07      -1.44495715e-06 
       5.27872990e-08       8.35012491e-07      -1.44495737e-06 
       1.98544258e-07       8.35012565e-07      -1.44374608e-06 
      -5.34274243e-08       8.33801019e-07      -1.44374586e-06 
      -1.99184384e-07       8.33800945e-07      -1.44495715e-06 
       5.27872990e-08       8.35012491e-07      -1.44495737e-06 
       1.98544258e-07       8.35012565e-07      -1.44374608e-06 
      -5.94140277e-08       1.04825500e-06      -1.81443338e-06 
      -2.21688879e-07       1.04825491e-06      -1.81579607e-06 
       5.86933218e-08       1.04961792e-06      -1.81579634e-06 
       2.20968173e-07       1.04961801e-06      -1.81443366e-06 
      -5.94140277e-08       1.04825500e-06      -1.81443338e-06 
      -2.21688879e-07       1.04825491e-06      -1.81579607e-06 
       5.86933218e-08       1.04961792e-06      -1.81579634e-06 
       2.20968173e-07       1.04961801e-06      -1.81443366e-06 
      -6.52468877e-08       1.28544884e-06      -2.22420849e-06 
      -2.43661469e-07       1.28544873e-06      -2.22572257e-06 
       6.44454845e-08       1.28696319e-06      -2.22572290e-06 
       2.42860067e-07       1.28696330e-06      -2.22420882e-06 
      -6.52468877e-08       1.28544884e-06      -2.22420849e-06 
      -2.43661469e-07       1.28544873e-06      -2.22572257e-06 
       6.44454849e-08       1.28696319e-06      -2.22572290e-06 
       2.42860066e-07       1.28696330e-06      -2.22420882e-06 
      -7.09224568e-08       1.54487330e-06      -2.67214348e-06 
      -2.65118868e-07       1.54487317e-06      -2.67379296e-06 
       7.00681873e-08       1.54652311e-06      -2.67379336e-06 
       2.64264598e-07       1.54652324e-06      -2.67214387e-06 
      -7.09224568e-08       1.54487330e-06      -2.67214348e-06 
      -2.65118868e-07       1.54487317e-06      -2.67379296e-06 
       7.00681873e-08       1.54652311e-06      -2.67379336e-06 
       2.64264598e-07       1.54652324e-06      -2.67214387e-06 
      -7.64643553e-08       1.82604066e-06      -3.15736921e-06 
      -2.86104792e-07       1.82604051e-06      -3.15915410e-06 
       7.55569176e-08       1.82782592e-06      -3.15915455e-06 
       2.85197354e-07       1.82782607e-06      -3.15736966e-06 
      -7.64643553e-08       1.82604066e-06      -3.15736921e-06 
      -2.86104792e-07       1.82604051e-06      -3.15915410e-06 
       7.55569176e-08       1.82782592e-06      -3.15915455e-06 
       2.85197354e-07       1.82782607e-06      -3.15736966e-06 
      -8.18725807e-08       2.12848048e-06      -3.67904253e-06 
      -3.06619241e-07       2.12848030e-06      -3.68096282e-06 
       8.09116787e-08       2.13040120e-06      -3.68096334e-06 
       3.05658338e-07       2.13040137e-06      -3.67904305e-06 
      -8.18725807e-08       2.12848048e-06      -3.67904253e-06 
      -3.06619241e-07       2.12848030e-06      -3.68096282e-06 
       8.09116787e-08       2.13040120e-06      -3.68096334e-06 
       3.05658338e-07       2.13040137e-06      -3.67904305e-06 
      -8.71471286e-08       2.45172232e-06      -4.23632028e-06 
      -3.26662208e-07       2.45172212e-06      -4.23837597e-06 
       8.61324740e-08       2.45377850e-06      -4.23837656e-06 
       3.25647553e-07       2.45377870e-06      -4.23632087e-06 
      -8.71471286e-08       2.45172232e-06      -4.23632028e-06 
      -3.26662208e-07       2.45172212e-06      -4.23837597e-06 
       8.61324740e-08       2.45377850e-06      -4.23837656e-06 
       3.25647553e-07       2.45377870e-06      -4.23632087e-06 
      -9.22879972e-08       2.79529577e-06      -4.82835931e-06 
      -3.46233694e-07       2.79529555e-06      -4.83055039e-06 
       9.12193068e-08       2.79748740e-06      -4.83055106e-06 
       3.45165003e-07       2.79748763e-06      -4.82835997e-06 
      -9.22879972e-08       2.79529577e-06      -4.82835931e-06 
      -3.46233694e-07       2.79529555e-06      -4.83055039e-06 
       9.12193068e-08       2.79748740e-06      -4.83055106e-06 
       3.45165003e-07       2.79748763e-06      -4.82835997e-06 
      -9.72951817e-08       3.15873038e-06      -5.45431645e-06 
      -3.65333692e-07       3.15873013e-06      -5.45664294e-06 
       9.61721804e-08       3.16105748e-06      -5.45664368e-06 
       3.64210691e-07       3.16105773e-06      -5.45431720e-06 
      -9.72951817e-08       3.15873038e-06      -5.45431645e-06 
      -3.65333692e-07       3.15873013e-06      -5.45664294e-06 
       9.61721804e-08       3.16105748e-06      -5.45664368e-06 
       3.64210691e-07       3.16105773e-06      -5.45431720e-06 
      -1.02168679e-07       3.54155573e-06      -6.11334856e-06 
      -3.83962199e-07       3.54155545e-06      -6.11581044e-06 
       1.00991099e-07       3.54401828e-06      -6.11581126e-06 
       3.82784620e-07       3.54401856e-06      -6.11334938e-06 
      -1.02168679e-07       3.54155573e-06      -6.11334856e-06 
      -3.83962199e-07       3.54155545e-06      -6.11581044e-06 
       1.00991099e-07       3.54401828e-06      -6.11581126e-06 
       3.82784620e-07       3.54401856e-06      -6.11334938e-06 
      -1.06908486e-07       3.94330138e-06      -6.80461248e-06 
      -4.02119214e-07       3.94330108e-06      -6.80720975e-06 
       1.05676065e-07       3.94589939e-06      -6.80721065e-06 
       4.00886794e-07       3.94589969e-06      -6.80461338e-06 
      -1.06908486e-07       3.94330138e-06      -6.80461248e-06 
      -4.02119214e-07       3.94330108e-06      -6.80720975e-06 
       1.05676065e-07       3.94589939e-06      -6.80721065e-06 
       4.00886794e-07       3.94589969e-06      -6.80461338e-06 
      -1.11514598e-07       4.36349690e-06      -7.52726504e-06 
      -4.19804731e-07       4.36349657e-06      -7.52999771e-06 
       1.10227083e-07       4.36623037e-06      -7.52999868e-06 
       4.18517216e-07       4.36623070e-06      -7.52726602e-06 
      -1.11514598e-07       4.36349690e-06      -7.52726504e-06 
      -4.19804731e-07       4.36349657e-06      -7.52999771e-06 
       1.10227083e-07       4.36623037e-06      -7.52999868e-06 
       4.18517216e-07       4.36623070e-06      -7.52726602e-06 
      -1.15987015e-07       4.80167186e-06      -8.28046310e-06 
      -4.37018749e-07       4.80167150e-06      -8.28333116e-06 
       1.14644154e-07       4.80454079e-06      -8.28333221e-06 
       4.35675888e-07       4.80454115e-06      -8.28046416e-06 
      -1.15987015e-07       4.80167186e-06      -8.28046310e-06 
      -4.37018749e-07       4.80167150e-06      -8.28333116e-06 
       1.14644154e-07       4.80454079e-06      -8.28333221e-06 
       4.35675888e-07       4.80454115e-06      -8.28046416e-06 
      -1.20326066e-07       5.25737321e-06      -9.06339050e-06 
      -4.53781792e-07       5.25737282e-06      -9.06637797e-06 
       1.18947208e-07       5.26036162e-06      -9.06637912e-06 
       4.52402934e-07       5.26036201e-06      -9.06339164e-06 
      -1.20326066e-07       5.25737321e-06      -9.06339050e-06 
      -4.53781792e-07       5.25737282e-06      -9.06637797e-06 
       1.18947208e-07       5.26036162e-06      -9.06637912e-06 
       4.52402934e-07       5.26036201e-06      -9.06339164e-06 
      -1.24550761e-07       5.73016927e-06      -9.87528830e-06 
      -4.70132919e-07       5.73016885e-06      -9.87839519e-06 
       1.23135553e-07       5.73327717e-06      -9.87839642e-06 
       4.68717712e-07       5.73327759e-06      -9.87528953e-06 
      -1.24550761e-07       5.73016927e-06      -9.87528830e-06 
      -4.70132919e-07       5.73016885e-06      -9.87839519e-06 
       1.23135553e-07       5.73327717e-06      -9.87839642e-06 
       4.68717712e-07       5.73327759e-06      -9.87528953e-06 
      -1.28661096e-07       6.21964567e-06      -1.07154231e-05 
      -4.86072126e-07       6.21964522e-06      -1.07186494e-05 
       1.27209198e-07       6.22287306e-06      -1.07186507e-05 
       4.84620228e-07       6.22287350e-06      -1.07154244e-05 
      -1.28661096e-07       6.21964567e-06      -1.07154231e-05 
      -4.86072126e-07       6.21964522e-06      -1.07186494e-05 
       1.27209198e-07       6.22287306e-06      -1.07186507e-05 
       4.84620228e-07       6.22287350e-06      -1.07154244e-05 
      -1.32657068e-07       6.72538800e-06      -1.15830616e-05 
      -5.01599409e-07       6.72538753e-06      -1.15864073e-05 
       1.31168143e-07       6.72873488e-06      -1.15864087e-05 
       5.00110484e-07       6.72873536e-06      -1.15830630e-05 
      -1.32657068e-07       6.72538800e-06      -1.15830616e-05 
      -5.01599409e-07       6.72538753e-06      -1.15864073e-05 
       1.31168143e-07       6.72873488e-06      -1.15864087e-05 
       5.00110484e-07       6.72873536e-06      -1.15830630e-05 
      -1.36538672e-07       7.24698189e-06      -1.24774703e-05 
      -5.16714763e-07       7.24698139e-06      -1.24809354e-05 
       1.35012394e-07       7.25044826e-06      -1.24809369e-05 
       5.15188486e-07       7.25044876e-06      -1.24774717e-05 
      -1.36538672e-07       7.24698189e-06      -1.24774703e-05 
      -5.16714763e-07       7.24698139e-06      -1.24809354e-05 
       1.35012394e-07       7.25044826e-06      -1.24809369e-05 
       5.15188486e-07       7.25044876e-06      -1.24774717e-05 
      -1.40305904e-07       7.78401295e-06      -1.33979158e-05 
      -5.31418186e-07       7.78401242e-06      -1.34015004e-05 
       1.38741956e-07       7.78759880e-06      -1.34015019e-05 
       5.29854238e-07       7.78759933e-06      -1.33979174e-05 
      -1.40305904e-07       7.78401295e-06      -1.33979158e-05 
      -5.31418186e-07       7.78401242e-06      -1.34015004e-05 
       1.38741956e-07       7.78759880e-06      -1.34015019e-05 
       5.29854238e-07       7.78759933e-06      -1.33979174e-05 
      -1.43958758e-07       8.33606678e-06      -1.43436648e-05 
      -5.45709670e-07       8.33606622e-06      -1.43473688e-05 
       1.42356832e-07       8.33977212e-06      -1.43473704e-05 
       5.44107745e-07       8.33977268e-06      -1.43436665e-05 
      -1.43958758e-07       8.33606678e-06      -1.43436648e-05 
      -5.45709670e-07       8.33606622e-06      -1.43473688e-05 
       1.42356832e-07       8.33977212e-06      -1.43473704e-05 
       5.44107745e-07       8.33977268e-06      -1.43436665e-05 
      -1.47497230e-07       8.90272899e-06      -1.53139839e-05 
      -5.59589212e-07       8.90272840e-06      -1.53178073e-05 
       1.45857029e-07       8.90655382e-06      -1.53178091e-05 
       5.57949011e-07       8.90655441e-06      -1.53139857e-05 
      -1.47497230e-07       8.90272899e-06      -1.53139839e-05 
      -5.59589212e-07       8.90272840e-06      -1.53178073e-05 
       1.45857029e-07       8.90655382e-06      -1.53178091e-05 
       5.57949011e-07       8.90655441e-06      -1.53139857e-05 
      -1.50921318e-07       9.48358521e-06      -1.63081397e-05 
      -5.73056809e-07       9.48358459e-06      -1.63120825e-05 
       1.49242548e-07       9.48752952e-06      -1.63120844e-05 
       5.71378039e-07       9.48753015e-06      -1.63081416e-05 
      -1.50921318e-07       9.48358521e-06      -1.63081397e-05 
      -5.73056809e-07       9.48358459e-06      -1.63120825e-05 
       1.49242548e-07       9.48752952e-06      -1.63120844e-05 
       5.71378039e-07       9.48753015e-06      -1.63081416e-05 
      -1.54231016e-07       1.00782210e-05      -1.73253989e-05 
      -5.86112455e-07       1.00782204e-05      -1.73294611e-05 
       1.52513396e-07       1.00822848e-05      -1.73294630e-05 
       5.84394836e-07       1.00822855e-05      -1.73254008e-05 
      -1.54231016e-07       1.00782210e-05      -1.73253989e-05 
      -5.86112455e-07       1.00782204e-05      -1.73294611e-05 
       1.52513396e-07       1.00822848e-05      -1.73294630e-05 
       5.84394836e-07       1.00822855e-05      -1.73254008e-05 
      -1.57429538e-07       1.06862394e-05      -1.83650546e-05 
      -5.98779500e-07       1.06862387e-05      -1.83692203e-05 
       1.55685920e-07       1.06904067e-05      -1.83692222e-05 
       5.97035883e-07       1.06904074e-05      -1.83650566e-05 
      -1.57429538e-07       1.06862394e-05      -1.83650546e-05 
      -5.98779500e-07       1.06862387e-05      -1.83692203e-05 
       1.55685920e-07       1.06904067e-05      -1.83692222e-05 
       5.97035883e-07       1.06904074e-05      -1.83650566e-05 
      -1.60532240e-07       1.13072646e-05      -1.94264559e-05 
      -6.11093304e-07       1.13072639e-05      -1.94307250e-05 
       1.58762293e-07       1.13115355e-05      -1.94307271e-05 
       6.09323357e-07       1.13115362e-05      -1.94264580e-05 
      -1.60532240e-07       1.13072646e-05      -1.94264559e-05 
      -6.11093304e-07       1.13072639e-05      -1.94307250e-05 
       1.58762293e-07       1.13115355e-05      -1.94307271e-05 
       6.09323357e-07       1.13115362e-05      -1.94264580e-05 
      -1.63539116e-07       1.19409382e-05      -2.05089770e-05 
      -6.23053862e-07       1.19409374e-05      -2.05133496e-05 
       1.61742519e-07       1.19453125e-05      -2.05133517e-05 
       6.21257265e-07       1.19453133e-05      -2.05089791e-05 
      -1.63539116e-07       1.19409382e-05      -2.05089770e-05 
      -6.23053862e-07       1.19409374e-05      -2.05133496e-05 
       1.61742519e-07       1.19453125e-05      -2.05133517e-05 
       6.21257265e-07       1.19453133e-05      -2.05089791e-05 
      -1.66450162e-07       1.25869015e-05      -2.16119920e-05 
      -6.34661170e-07       1.25869008e-05      -2.16164681e-05 
       1.64626600e-07       1.25913794e-05      -2.16164703e-05 
       6.32837608e-07       1.25913802e-05      -2.16119942e-05 
      -1.66450162e-07       1.25869015e-05      -2.16119920e-05 
      -6.34661170e-07       1.25869008e-05      -2.16164681e-05 
       1.64626600e-07       1.25913794e-05      -2.16164703e-05 
       6.32837608e-07       1.25913802e-05      -2.16119942e-05 
      -1.69265374e-07       1.32447963e-05      -2.27348751e-05 
      -6.45915223e-07       1.32447955e-05      -2.27394547e-05 
       1.67414544e-07       1.32493777e-05      -2.27394570e-05 
       6.44064393e-07       1.32493785e-05      -2.27348774e-05 
      -1.69265374e-07       1.32447963e-05      -2.27348751e-05 
      -6.45915223e-07       1.32447955e-05      -2.27394547e-05 
       1.67414544e-07       1.32493777e-05      -2.27394570e-05 
       6.44064393e-07       1.32493785e-05      -2.27348774e-05 
      -1.71984747e-07       1.39142638e-05      -2.38770005e-05 
      -6.56816016e-07       1.39142630e-05      -2.38816835e-05 
       1.70106355e-07       1.39189488e-05      -2.38816859e-05 
       6.54937623e-07       1.39189496e-05      -2.38770029e-05 
      -1.71984747e-07       1.39142638e-05      -2.38770005e-05 
      -6.56816016e-07       1.39142630e-05      -2.38816835e-05 
       1.70106355e-07       1.39189488e-05      -2.38816859e-05 
       6.54937623e-07       1.39189496e-05      -2.38770029e-05 
      -1.74608275e-07       1.45949458e-05      -2.50377424e-05 
      -6.67363545e-07       1.45949450e-05      -2.50425288e-05 
       1.72702036e-07       1.45997343e-05      -2.50425313e-05 
       6.65457305e-07       1.45997351e-05      -2.50377448e-05 
      -1.74608275e-07       1.45949458e-05      -2.50377424e-05 
      -6.67363545e-07       1.45949450e-05      -2.50425288e-05 
       1.72702036e-07       1.45997343e-05      -2.50425313e-05 
       6.65457305e-07       1.45997351e-05      -2.50377448e-05 
      -1.77135954e-07       1.52864837e-05      -2.62164748e-05 
      -6.77557804e-07       1.52864828e-05      -2.62213647e-05 
       1.75201594e-07       1.52913757e-05      -2.62213672e-05 
       6.75623443e-07       1.52913765e-05      -2.62164773e-05 
      -1.77135954e-07       1.52864837e-05      -2.62164748e-05 
      -6.77557804e-07       1.52864828e-05      -2.62213647e-05 