# vtk DataFile Version 2.0
./output/onsasExample_BladeCantileverBeamPitch_windVel3DDynamic 3D/onsasExample_BladeCantileverBeamPitch_windVel3DDynamic 3D_0161.vtk
ASCII
DATASET UNSTRUCTURED_GRID

POINTS 800 float
      -1.084316e-23      -7.180703e-02      -7.180703e-02 
      -1.125149e-23       7.180703e-02      -7.180703e-02 
       1.084316e-23       7.180703e-02       7.180703e-02 
       1.125149e-23      -7.180703e-02       7.180703e-02 
       2.000000e-01      -7.180702e-02      -7.180706e-02 
       2.000000e-01       7.180705e-02      -7.180706e-02 
       2.000000e-01       7.180705e-02       7.180701e-02 
       2.000000e-01      -7.180702e-02       7.180701e-02 
       2.000000e-01      -7.180702e-02      -7.180706e-02 
       2.000000e-01       7.180705e-02      -7.180706e-02 
       2.000000e-01       7.180705e-02       7.180701e-02 
       2.000000e-01      -7.180702e-02       7.180701e-02 
       4.000000e-01      -7.180698e-02      -7.180714e-02 
       3.999999e-01       7.180709e-02      -7.180714e-02 
       4.000000e-01       7.180709e-02       7.180693e-02 
       4.000001e-01      -7.180698e-02       7.180693e-02 
       4.000000e-01      -7.180698e-02      -7.180714e-02 
       3.999999e-01       7.180709e-02      -7.180714e-02 
       4.000000e-01       7.180709e-02       7.180693e-02 
       4.000001e-01      -7.180698e-02       7.180693e-02 
       6.000000e-01      -7.180691e-02      -7.180727e-02 
       5.999999e-01       7.180716e-02      -7.180727e-02 
       6.000000e-01       7.180716e-02       7.180680e-02 
       6.000001e-01      -7.180691e-02       7.180680e-02 
       6.000000e-01      -7.180691e-02      -7.180727e-02 
       5.999999e-01       7.180716e-02      -7.180727e-02 
       6.000000e-01       7.180716e-02       7.180680e-02 
       6.000001e-01      -7.180691e-02       7.180680e-02 
       8.000000e-01      -7.180682e-02      -7.180744e-02 
       7.999999e-01       7.180725e-02      -7.180745e-02 
       8.000000e-01       7.180725e-02       7.180662e-02 
       8.000001e-01      -7.180682e-02       7.180662e-02 
       8.000000e-01      -7.180682e-02      -7.180744e-02 
       7.999999e-01       7.180725e-02      -7.180745e-02 
       8.000000e-01       7.180725e-02       7.180662e-02 
       8.000001e-01      -7.180682e-02       7.180662e-02 
       1.000000e+00      -7.180670e-02      -7.180767e-02 
       9.999999e-01       7.180737e-02      -7.180767e-02 
       1.000000e+00       7.180737e-02       7.180639e-02 
       1.000000e+00      -7.180670e-02       7.180639e-02 
       1.000000e+00      -7.180670e-02      -7.180767e-02 
       9.999999e-01       7.180737e-02      -7.180767e-02 
       1.000000e+00       7.180737e-02       7.180639e-02 
       1.000000e+00      -7.180670e-02       7.180639e-02 
       1.200000e+00      -7.180655e-02      -7.180795e-02 
       1.200000e+00       7.180751e-02      -7.180795e-02 
       1.200000e+00       7.180751e-02       7.180612e-02 
       1.200000e+00      -7.180655e-02       7.180612e-02 
       1.200000e+00      -7.180655e-02      -7.180795e-02 
       1.200000e+00       7.180751e-02      -7.180795e-02 
       1.200000e+00       7.180751e-02       7.180612e-02 
       1.200000e+00      -7.180655e-02       7.180612e-02 
       1.400000e+00      -7.180638e-02      -7.180827e-02 
       1.400000e+00       7.180768e-02      -7.180827e-02 
       1.400000e+00       7.180768e-02       7.180580e-02 
       1.400000e+00      -7.180638e-02       7.180580e-02 
       1.400000e+00      -7.180638e-02      -7.180827e-02 
       1.400000e+00       7.180768e-02      -7.180827e-02 
       1.400000e+00       7.180768e-02       7.180580e-02 
       1.400000e+00      -7.180638e-02       7.180580e-02 
       1.600000e+00      -7.180619e-02      -7.180864e-02 
       1.600000e+00       7.180787e-02      -7.180864e-02 
       1.600000e+00       7.180788e-02       7.180543e-02 
       1.600000e+00      -7.180619e-02       7.180543e-02 
       1.600000e+00      -7.180619e-02      -7.180864e-02 
       1.600000e+00       7.180787e-02      -7.180864e-02 
       1.600000e+00       7.180788e-02       7.180543e-02 
       1.600000e+00      -7.180619e-02       7.180543e-02 
       1.800000e+00      -7.180598e-02      -7.180905e-02 
       1.800000e+00       7.180809e-02      -7.180905e-02 
       1.800000e+00       7.180809e-02       7.180501e-02 
       1.800000e+00      -7.180597e-02       7.180502e-02 
       1.800000e+00      -7.180598e-02      -7.180905e-02 
       1.800000e+00       7.180809e-02      -7.180905e-02 
       1.800000e+00       7.180809e-02       7.180501e-02 
       1.800000e+00      -7.180597e-02       7.180502e-02 
       2.000000e+00      -7.180574e-02      -7.180951e-02 
       2.000000e+00       7.180833e-02      -7.180951e-02 
       2.000000e+00       7.180833e-02       7.180456e-02 
       2.000000e+00      -7.180574e-02       7.180456e-02 
       2.000000e+00      -7.180574e-02      -7.180951e-02 
       2.000000e+00       7.180833e-02      -7.180951e-02 
       2.000000e+00       7.180833e-02       7.180456e-02 
       2.000000e+00      -7.180574e-02       7.180456e-02 
       2.200000e+00      -7.180547e-02      -7.181001e-02 
       2.200000e+00       7.180859e-02      -7.181001e-02 
       2.200000e+00       7.180859e-02       7.180406e-02 
       2.200000e+00      -7.180547e-02       7.180406e-02 
       2.200000e+00      -7.180547e-02      -7.181001e-02 
       2.200000e+00       7.180859e-02      -7.181001e-02 
       2.200000e+00       7.180859e-02       7.180406e-02 
       2.200000e+00      -7.180547e-02       7.180406e-02 
       2.400000e+00      -7.180519e-02      -7.181055e-02 
       2.400000e+00       7.180888e-02      -7.181055e-02 
       2.400000e+00       7.180888e-02       7.180352e-02 
       2.400000e+00      -7.180519e-02       7.180352e-02 
       2.400000e+00      -7.180519e-02      -7.181055e-02 
       2.400000e+00       7.180888e-02      -7.181055e-02 
       2.400000e+00       7.180888e-02       7.180352e-02 
       2.400000e+00      -7.180519e-02       7.180352e-02 
       2.600000e+00      -7.180489e-02      -7.181113e-02 
       2.600000e+00       7.180918e-02      -7.181113e-02 
       2.600000e+00       7.180918e-02       7.180294e-02 
       2.600000e+00      -7.180488e-02       7.180294e-02 
       2.600000e+00      -7.180489e-02      -7.181113e-02 
       2.600000e+00       7.180918e-02      -7.181113e-02 
       2.600000e+00       7.180918e-02       7.180294e-02 
       2.600000e+00      -7.180488e-02       7.180294e-02 
       2.800000e+00      -7.180456e-02      -7.181175e-02 
       2.800000e+00       7.180951e-02      -7.181175e-02 
       2.800000e+00       7.180951e-02       7.180231e-02 
       2.800000e+00      -7.180456e-02       7.180232e-02 
       2.800000e+00      -7.180456e-02      -7.181175e-02 
       2.800000e+00       7.180951e-02      -7.181175e-02 
       2.800000e+00       7.180951e-02       7.180231e-02 
       2.800000e+00      -7.180456e-02       7.180232e-02 
       3.000000e+00      -7.180421e-02      -7.181241e-02 
       3.000000e+00       7.180985e-02      -7.181241e-02 
       3.000000e+00       7.180986e-02       7.180165e-02 
       3.000000e+00      -7.180421e-02       7.180165e-02 
       3.000000e+00      -7.180421e-02      -7.181241e-02 
       3.000000e+00       7.180985e-02      -7.181241e-02 
       3.000000e+00       7.180986e-02       7.180165e-02 
       3.000000e+00      -7.180421e-02       7.180165e-02 
       3.200000e+00      -7.180385e-02      -7.181311e-02 
       3.200000e+00       7.181022e-02      -7.181311e-02 
       3.200000e+00       7.181022e-02       7.180095e-02 
       3.200000e+00      -7.180384e-02       7.180096e-02 
       3.200000e+00      -7.180385e-02      -7.181311e-02 
       3.200000e+00       7.181022e-02      -7.181311e-02 
       3.200000e+00       7.181022e-02       7.180095e-02 
       3.200000e+00      -7.180384e-02       7.180096e-02 
       3.400000e+00      -7.180346e-02      -7.181385e-02 
       3.400000e+00       7.181061e-02      -7.181385e-02 
       3.400000e+00       7.181061e-02       7.180022e-02 
       3.400000e+00      -7.180346e-02       7.180022e-02 
       3.400000e+00      -7.180346e-02      -7.181385e-02 
       3.400000e+00       7.181061e-02      -7.181385e-02 
       3.400000e+00       7.181061e-02       7.180022e-02 
       3.400000e+00      -7.180346e-02       7.180022e-02 
       3.600000e+00      -7.180305e-02      -7.181462e-02 
       3.600000e+00       7.181101e-02      -7.181462e-02 
       3.600000e+00       7.181101e-02       7.179944e-02 
       3.600000e+00      -7.180305e-02       7.179945e-02 
       3.600000e+00      -7.180305e-02      -7.181462e-02 
       3.600000e+00       7.181101e-02      -7.181462e-02 
       3.600000e+00       7.181101e-02       7.179944e-02 
       3.600000e+00      -7.180305e-02       7.179945e-02 
       3.800000e+00      -7.180263e-02      -7.181543e-02 
       3.800000e+00       7.181144e-02      -7.181543e-02 
       3.800000e+00       7.181144e-02       7.179864e-02 
       3.800000e+00      -7.180263e-02       7.179864e-02 
       3.800000e+00      -7.180263e-02      -7.181543e-02 
       3.800000e+00       7.181144e-02      -7.181543e-02 
       3.800000e+00       7.181144e-02       7.179864e-02 
       3.800000e+00      -7.180263e-02       7.179864e-02 
       4.000000e+00      -7.180219e-02      -7.181627e-02 
       4.000000e+00       7.181188e-02      -7.181627e-02 
       4.000000e+00       7.181188e-02       7.179779e-02 
       4.000000e+00      -7.180219e-02       7.179779e-02 
       4.000000e+00      -7.180219e-02      -7.181627e-02 
       4.000000e+00       7.181188e-02      -7.181627e-02 
       4.000000e+00       7.181188e-02       7.179779e-02 
       4.000000e+00      -7.180219e-02       7.179779e-02 
       4.200000e+00      -7.180173e-02      -7.181715e-02 
[...]
POINT_DATA       800 
VECTORS Displacements float
      -1.08431561e-23       0.00000000e+00       0.00000000e+00 
      -1.12514885e-23       0.00000000e+00       0.00000000e+00 
       1.08431561e-23       0.00000000e+00       0.00000000e+00 
       1.12514885e-23       0.00000000e+00       0.00000000e+00 
      -8.98922314e-09       1.36894203e-08      -2.61898323e-08 
      -2.86947147e-08       1.36894190e-08      -2.63412835e-08 
       8.90499882e-09       1.38408754e-08      -2.63412884e-08 
       2.86104904e-08       1.38408768e-08      -2.61898372e-08 
      -8.98922314e-09       1.36894203e-08      -2.61898323e-08 
      -2.86947147e-08       1.36894190e-08      -2.63412835e-08 
       8.90499882e-09       1.38408754e-08      -2.63412884e-08 
       2.86104904e-08       1.38408768e-08      -2.61898372e-08 
      -1.78041388e-08       5.45570996e-08      -1.04234938e-07 
      -5.68359437e-08       5.45570943e-08      -1.04537836e-07 
       1.76355266e-08       5.48600121e-08      -1.04537855e-07 
       5.66673315e-08       5.48600174e-08      -1.04234958e-07 
      -1.78041388e-08       5.45570996e-08      -1.04234938e-07 
      -5.68359437e-08       5.45570943e-08      -1.04537836e-07 
       1.76355266e-08       5.48600121e-08      -1.04537855e-07 
       5.66673315e-08       5.48600174e-08      -1.04234958e-07 
      -2.64447454e-08       1.22074986e-07      -2.33121550e-07 
      -8.44236856e-08       1.22074975e-07      -2.33575890e-07 
       2.61915848e-08       1.22529359e-07      -2.33575932e-07 
       8.41705249e-08       1.22529370e-07      -2.33121593e-07 
      -2.64447454e-08       1.22074986e-07      -2.33121550e-07 
      -8.44236856e-08       1.22074975e-07      -2.33575890e-07 
       2.61915848e-08       1.22529359e-07      -2.33575932e-07 
       8.41705249e-08       1.22529370e-07      -2.33121593e-07 
      -3.49110411e-08       2.15715029e-07      -4.11835900e-07 
      -1.11457938e-07       2.15715008e-07      -4.12441677e-07 
       3.45731751e-08       2.16320863e-07      -4.12441751e-07 
       1.11120072e-07       2.16320883e-07      -4.11835975e-07 
      -3.49110411e-08       2.15715029e-07      -4.11835900e-07 
      -1.11457938e-07       2.15715008e-07      -4.12441677e-07 
       3.45731751e-08       2.16320863e-07      -4.12441751e-07 
       1.11120072e-07       2.16320883e-07      -4.11835975e-07 
      -4.32030246e-08       3.34949176e-07      -6.39364220e-07 
      -1.37938701e-07       3.34949144e-07      -6.40121430e-07 
       4.27802991e-08       3.35706473e-07      -6.40121544e-07 
       1.37515975e-07       3.35706505e-07      -6.39364334e-07 
      -4.32030246e-08       3.34949176e-07      -6.39364220e-07 
      -1.37938701e-07       3.34949144e-07      -6.40121430e-07 
       4.27802991e-08       3.35706473e-07      -6.40121544e-07 
       1.37515975e-07       3.35706505e-07      -6.39364334e-07 
      -5.13206941e-08       4.79249375e-07      -9.14692742e-07 
      -1.63865971e-07       4.79249331e-07      -9.15601381e-07 
       5.08129581e-08       4.80158139e-07      -9.15601542e-07 
       1.63358235e-07       4.80158183e-07      -9.14692903e-07 
      -5.13206941e-08       4.79249375e-07      -9.14692742e-07 
      -1.63865971e-07       4.79249331e-07      -9.15601381e-07 
       5.08129581e-08       4.80158139e-07      -9.15601542e-07 
       1.63358235e-07       4.80158183e-07      -9.14692903e-07 
      -5.92640483e-08       6.48087576e-07      -1.23680770e-06 
      -1.89239748e-07       6.48087518e-07      -1.23786776e-06 
       5.86711542e-08       6.49147807e-07      -1.23786798e-06 
       1.88646854e-07       6.49147866e-07      -1.23680791e-06 
      -5.92640483e-08       6.48087576e-07      -1.23680770e-06 
      -1.89239748e-07       6.48087518e-07      -1.23786776e-06 
       5.86711542e-08       6.49147807e-07      -1.23786798e-06 
       1.88646854e-07       6.49147866e-07      -1.23680791e-06 
      -6.70330849e-08       8.40935727e-07      -1.60469532e-06 
      -2.14060029e-07       8.40935652e-07      -1.60590681e-06 
       6.63548891e-08       8.42147426e-07      -1.60590708e-06 
       2.13381833e-07       8.42147501e-07      -1.60469559e-06 
      -6.70330849e-08       8.40935727e-07      -1.60469532e-06 
      -2.14060029e-07       8.40935652e-07      -1.60590681e-06 
       6.63548891e-08       8.42147426e-07      -1.60590708e-06 
       2.13381833e-07       8.42147501e-07      -1.60469559e-06 
      -7.46278028e-08       1.05726578e-06      -2.01734184e-06 
      -2.38326813e-07       1.05726568e-06      -2.01870475e-06 
       7.38641637e-08       1.05862895e-06      -2.01870509e-06 
       2.37563174e-07       1.05862904e-06      -2.01734218e-06 
      -7.46278028e-08       1.05726578e-06      -2.01734184e-06 
      -2.38326813e-07       1.05726568e-06      -2.01870475e-06 
       7.38641637e-08       1.05862895e-06      -2.01870509e-06 
       2.37563174e-07       1.05862904e-06      -2.01734218e-06 
      -8.20482011e-08       1.29654967e-06      -2.47373349e-06 
      -2.62040099e-07       1.29654956e-06      -2.47524781e-06 
       8.11989800e-08       1.29806431e-06      -2.47524822e-06 
       2.61190878e-07       1.29806442e-06      -2.47373390e-06 
      -8.20482009e-08       1.29654967e-06      -2.47373349e-06 
      -2.62040099e-07       1.29654956e-06      -2.47524781e-06 
       8.11989800e-08       1.29806431e-06      -2.47524822e-06 
       2.61190878e-07       1.29806442e-06      -2.47373390e-06 
      -8.92882106e-08       1.55827629e-06      -2.97288097e-06 
      -2.85213211e-07       1.55827615e-06      -2.97453070e-06 
       8.83822944e-08       1.55992639e-06      -2.97453119e-06 
       2.84307295e-07       1.55992653e-06      -2.97288145e-06 
      -8.92882106e-08       1.55827629e-06      -2.97288097e-06 
      -2.85213211e-07       1.55827615e-06      -2.97453070e-06 
       8.83822944e-08       1.55992639e-06      -2.97453119e-06 
       2.84307295e-07       1.55992653e-06      -2.97288145e-06 
      -9.63721942e-08       1.84195514e-06      -3.51384937e-06 
      -3.07890596e-07       1.84195498e-06      -3.51563451e-06 
       9.54092236e-08       1.84374072e-06      -3.51563508e-06 
       3.06927626e-07       1.84374087e-06      -3.51384994e-06 
      -9.63721942e-08       1.84195514e-06      -3.51384937e-06 
      -3.07890596e-07       1.84195498e-06      -3.51563451e-06 
       9.54092236e-08       1.84374072e-06      -3.51563508e-06 
       3.06927626e-07       1.84374087e-06      -3.51384994e-06 
      -1.03300149e-07       2.14711315e-06      -4.09573057e-06 
      -3.30072251e-07       2.14711297e-06      -4.09765111e-06 
       1.02279770e-07       2.14903420e-06      -4.09765176e-06 
       3.29051872e-07       2.14903438e-06      -4.09573122e-06 
      -1.03300149e-07       2.14711315e-06      -4.09573057e-06 
      -3.30072251e-07       2.14711297e-06      -4.09765111e-06 
       1.02279770e-07       2.14903420e-06      -4.09765176e-06 
       3.29051872e-07       2.14903438e-06      -4.09573122e-06 
      -1.10072071e-07       2.47327725e-06      -4.71761640e-06 
      -3.51758172e-07       2.47327705e-06      -4.71967235e-06 
       1.08993938e-07       2.47533377e-06      -4.71967309e-06 
       3.50680039e-07       2.47533398e-06      -4.71761714e-06 
      -1.10072071e-07       2.47327725e-06      -4.71761640e-06 
      -3.51758172e-07       2.47327705e-06      -4.71967235e-06 
       1.08993938e-07       2.47533377e-06      -4.71967309e-06 
       3.50680039e-07       2.47533398e-06      -4.71761714e-06 
      -1.16687956e-07       2.81997437e-06      -5.37859873e-06 
      -3.72948354e-07       2.81997414e-06      -5.38079007e-06 
       1.15551732e-07       2.82216636e-06      -5.38079091e-06 
       3.71812130e-07       2.82216659e-06      -5.37859956e-06 
      -1.16687956e-07       2.81997437e-06      -5.37859873e-06 
      -3.72948354e-07       2.81997414e-06      -5.38079007e-06 
       1.15551732e-07       2.82216636e-06      -5.38079091e-06 
       3.71812130e-07       2.82216659e-06      -5.37859956e-06 
      -1.23147800e-07       3.18673142e-06      -6.07776940e-06 
      -3.93642795e-07       3.18673116e-06      -6.08009615e-06 
       1.21953155e-07       3.18905889e-06      -6.08009707e-06 
       3.92448150e-07       3.18905914e-06      -6.07777033e-06 
      -1.23147800e-07       3.18673142e-06      -6.07776940e-06 
      -3.93642795e-07       3.18673116e-06      -6.08009615e-06 
       1.21953155e-07       3.18905889e-06      -6.08009707e-06 
       3.92448150e-07       3.18905914e-06      -6.07777033e-06 
      -1.29451599e-07       3.57307533e-06      -6.81422028e-06 
      -4.13841489e-07       3.57307505e-06      -6.81668242e-06 
       1.28198212e-07       3.57553827e-06      -6.81668345e-06 
       4.12588102e-07       3.57553855e-06      -6.81422130e-06 
      -1.29451599e-07       3.57307533e-06      -6.81422028e-06 
      -4.13841489e-07       3.57307505e-06      -6.81668242e-06 
       1.28198212e-07       3.57553827e-06      -6.81668345e-06 
       4.12588102e-07       3.57553855e-06      -6.81422130e-06 
      -1.35599349e-07       3.97853304e-06      -7.58704321e-06 
      -4.33544433e-07       3.97853273e-06      -7.58964075e-06 
       1.34286906e-07       3.98113145e-06      -7.58964188e-06 
       4.32231990e-07       3.98113176e-06      -7.58704433e-06 
      -1.35599349e-07       3.97853304e-06      -7.58704321e-06 
      -4.33544433e-07       3.97853273e-06      -7.58964075e-06 
       1.34286906e-07       3.98113145e-06      -7.58964188e-06 
       4.32231990e-07       3.98113176e-06      -7.58704433e-06 
      -1.41591046e-07       4.40263145e-06      -8.39533005e-06 
      -4.52751623e-07       4.40263111e-06      -8.39806300e-06 
       1.40219241e-07       4.40536534e-06      -8.39806422e-06 
       4.51379819e-07       4.40536568e-06      -8.39533128e-06 
      -1.41591046e-07       4.40263145e-06      -8.39533005e-06 
      -4.52751623e-07       4.40263111e-06      -8.39806300e-06 
       1.40219241e-07       4.40536534e-06      -8.39806422e-06 
       4.51379819e-07       4.40536568e-06      -8.39533128e-06 
      -1.47426686e-07       4.84489750e-06      -9.23817266e-06 
      -4.71463056e-07       4.84489714e-06      -9.24104100e-06 
       1.45995221e-07       4.84776687e-06      -9.24104233e-06 
       4.70031591e-07       4.84776723e-06      -9.23817399e-06 
      -1.47426687e-07       4.84489750e-06      -9.23817266e-06 
      -4.71463056e-07       4.84489714e-06      -9.24104100e-06 
       1.45995221e-07       4.84776687e-06      -9.24104233e-06 
       4.70031591e-07       4.84776723e-06      -9.23817399e-06 
      -1.53105145e-07       5.30487523e-06      -1.01146884e-05 
      -4.89697345e-07       5.30487484e-06      -1.01176761e-05 
       1.51634280e-07       5.30786407e-06      -1.01176775e-05 
       4.88226480e-07       5.30786447e-06      -1.01146898e-05 
      -1.53105145e-07       5.30487523e-06      -1.01146884e-05 
      -4.89697345e-07       5.30487484e-06      -1.01176761e-05 
       1.51634280e-07       5.30786407e-06      -1.01176775e-05 
       4.88226480e-07       5.30786447e-06      -1.01146898e-05 
      -1.58646474e-07       5.78212971e-06      -1.10240506e-05 
      -5.07494682e-07       5.78212928e-06      -1.10271577e-05 
       1.57135783e-07       5.78523802e-06      -1.10271593e-05 
       5.05983991e-07       5.78523845e-06      -1.10240521e-05 
      -1.58646474e-07       5.78212971e-06      -1.10240506e-05 
      -5.07494682e-07       5.78212928e-06      -1.10271577e-05 
       1.57135783e-07       5.78523802e-06      -1.10271593e-05 
       5.05983991e-07       5.78523845e-06      -1.10240521e-05 
      -1.64050665e-07       6.27624339e-06      -1.19654592e-05 
      -5.24855059e-07       6.27624294e-06      -1.19686857e-05 
       1.62499735e-07       6.27947118e-06      -1.19686874e-05 
       5.23304131e-07       6.27947164e-06      -1.19654609e-05 
      -1.64050665e-07       6.27624339e-06      -1.19654592e-05 
      -5.24855059e-07       6.27624294e-06      -1.19686857e-05 
       1.62499735e-07       6.27947118e-06      -1.19686874e-05 
       5.23304131e-07       6.27947164e-06      -1.19654609e-05 
      -1.69317715e-07       6.78679874e-06      -1.29381142e-05 
      -5.41778475e-07       6.78679826e-06      -1.29414601e-05 
       1.67726141e-07       6.79014601e-06      -1.29414619e-05 
       5.40186901e-07       6.79014649e-06      -1.29381160e-05 
      -1.69317715e-07       6.78679874e-06      -1.29381142e-05 
      -5.41778475e-07       6.78679826e-06      -1.29414601e-05 
       1.67726141e-07       6.79014601e-06      -1.29414619e-05 
       5.40186901e-07       6.79014649e-06      -1.29381160e-05 
      -1.74447620e-07       7.31337822e-06      -1.39412155e-05 
      -5.58264923e-07       7.31337771e-06      -1.39446808e-05 
       1.72815006e-07       7.31684497e-06      -1.39446826e-05 
       5.56632310e-07       7.31684548e-06      -1.39412173e-05 
      -1.74447620e-07       7.31337822e-06      -1.39412155e-05 
      -5.58264923e-07       7.31337771e-06      -1.39446808e-05 
       1.72815006e-07       7.31684497e-06      -1.39446826e-05 
       5.56632310e-07       7.31684548e-06      -1.39412173e-05 
      -1.79440373e-07       7.85556430e-06      -1.49739629e-05 
      -5.74314398e-07       7.85556376e-06      -1.49775476e-05 
       1.77766336e-07       7.85915052e-06      -1.49775496e-05 
       5.72640361e-07       7.85915107e-06      -1.49739649e-05 
      -1.79440373e-07       7.85556430e-06      -1.49739629e-05 
      -5.74314398e-07       7.85556376e-06      -1.49775476e-05 
       1.77766336e-07       7.85915052e-06      -1.49775496e-05 
       5.72640361e-07       7.85915107e-06      -1.49739649e-05 
      -1.84295969e-07       8.41293943e-06      -1.60355565e-05 
      -5.89926894e-07       8.41293886e-06      -1.60392606e-05 
       1.82580134e-07       8.41664513e-06      -1.60392627e-05 
       5.88211060e-07       8.41664571e-06      -1.60355586e-05 
      -1.84295969e-07       8.41293943e-06      -1.60355565e-05 
      -5.89926894e-07       8.41293886e-06      -1.60392606e-05 
       1.82580134e-07       8.41664513e-06      -1.60392627e-05 
       5.88211060e-07       8.41664571e-06      -1.60355586e-05 
      -1.89014401e-07       8.98508608e-06      -1.71251962e-05 
      -6.05102406e-07       8.98508548e-06      -1.71290196e-05 
       1.87256409e-07       8.98891126e-06      -1.71290218e-05 
       6.03344414e-07       8.98891186e-06      -1.71251983e-05 
      -1.89014401e-07       8.98508608e-06      -1.71251962e-05 
      -6.05102406e-07       8.98508548e-06      -1.71290196e-05 
       1.87256409e-07       8.98891126e-06      -1.71290218e-05 
       6.03344414e-07       8.98891186e-06      -1.71251983e-05 
      -1.93595668e-07       9.57158671e-06      -1.82420818e-05 
      -6.19840930e-07       9.57158607e-06      -1.82460247e-05 
       1.91795163e-07       9.57553137e-06      -1.82460270e-05 
       6.18040424e-07       9.57553200e-06      -1.82420841e-05 
      -1.93595668e-07       9.57158671e-06      -1.82420818e-05 
      -6.19840930e-07       9.57158607e-06      -1.82460247e-05 
       1.91795163e-07       9.57553137e-06      -1.82460270e-05 
       6.18040424e-07       9.57553200e-06      -1.82420841e-05 
      -1.98039762e-07       1.01720238e-05      -1.93854133e-05 
      -6.34142460e-07       1.01720231e-05      -1.93894756e-05 
       1.96196401e-07       1.01760879e-05      -1.93894780e-05 
       6.32299098e-07       1.01760886e-05      -1.93854157e-05 
      -1.98039762e-07       1.01720238e-05      -1.93854133e-05 
      -6.34142460e-07       1.01720231e-05      -1.93894756e-05 
       1.96196401e-07       1.01760879e-05      -1.93894780e-05 
       6.32299099e-07       1.01760886e-05      -1.93854157e-05 
      -2.02349193e-07       1.07859970e-05      -2.05544168e-05 
      -6.48029452e-07       1.07859963e-05      -2.05585825e-05 
       2.00476640e-07       1.07901646e-05      -2.05585850e-05 
       6.46156899e-07       1.07901653e-05      -2.05544193e-05 
      -2.02349193e-07       1.07859970e-05      -2.05544168e-05 
      -6.48029452e-07       1.07859963e-05      -2.05585825e-05 
       2.00476640e-07       1.07901646e-05      -2.05585850e-05 
       6.46156899e-07       1.07901653e-05      -2.05544193e-05 
      -2.06540561e-07       1.14131272e-05      -2.17483747e-05 
      -6.61538662e-07       1.14131265e-05      -2.17526438e-05 
       2.04638408e-07       1.14173984e-05      -2.17526464e-05 
       6.59636509e-07       1.14173991e-05      -2.17483773e-05 
      -2.06540561e-07       1.14131272e-05      -2.17483747e-05 
      -6.61538662e-07       1.14131265e-05      -2.17526438e-05 
       2.04638408e-07       1.14173984e-05      -2.17526464e-05 
       6.59636509e-07       1.14173991e-05      -2.17483773e-05 
      -2.10613860e-07       1.20530529e-05      -2.29665961e-05 
      -6.74670081e-07       1.20530521e-05      -2.29709686e-05 
       2.08681715e-07       1.20574275e-05      -2.29709713e-05 
       6.72737937e-07       1.20574283e-05      -2.29665988e-05 
      -2.10613860e-07       1.20530529e-05      -2.29665961e-05 
      -6.74670081e-07       1.20530521e-05      -2.29709686e-05 
       2.08681715e-07       1.20574275e-05      -2.29709713e-05 
       6.72737937e-07       1.20574283e-05      -2.29665988e-05 
      -2.14569084e-07       1.27054122e-05      -2.42083898e-05 
      -6.87423706e-07       1.27054114e-05      -2.42128658e-05 
       2.12606564e-07       1.27098903e-05      -2.42128686e-05 
       6.85461187e-07       1.27098911e-05      -2.42083927e-05 
      -2.14569084e-07       1.27054122e-05      -2.42083898e-05 
      -6.87423706e-07       1.27054114e-05      -2.42128658e-05 
       2.12606564e-07       1.27098903e-05      -2.42128686e-05 
       6.85461187e-07       1.27098911e-05      -2.42083927e-05 
      -2.18406230e-07       1.33698436e-05      -2.54730648e-05 
      -6.99799532e-07       1.33698427e-05      -2.54776442e-05 
       2.16412962e-07       1.33744251e-05      -2.54776471e-05 
       6.97806264e-07       1.33744260e-05      -2.54730678e-05 
      -2.18406230e-07       1.33698436e-05      -2.54730648e-05 
      -6.99799532e-07       1.33698427e-05      -2.54776442e-05 
       2.16412962e-07       1.33744251e-05      -2.54776471e-05 
       6.97806264e-07       1.33744260e-05      -2.54730678e-05 
      -2.22125290e-07       1.40459852e-05      -2.67599300e-05 
      -7.11797552e-07       1.40459843e-05      -2.67646127e-05 
       2.20100913e-07       1.40506703e-05      -2.67646157e-05 
       7.09773174e-07       1.40506711e-05      -2.67599330e-05 
      -2.22125290e-07       1.40459852e-05      -2.67599300e-05 
      -7.11797552e-07       1.40459843e-05      -2.67646127e-05 
       2.20100913e-07       1.40506703e-05      -2.67646157e-05 
       7.09773174e-07       1.40506711e-05      -2.67599330e-05 
      -2.25726259e-07       1.47334754e-05      -2.80682942e-05 
      -7.23417760e-07       1.47334745e-05      -2.80730804e-05 
       2.23670423e-07       1.47382640e-05      -2.80730835e-05 
       7.21361924e-07       1.47382648e-05      -2.80682973e-05 
      -2.25726259e-07       1.47334754e-05      -2.80682942e-05 
      -7.23417760e-07       1.47334745e-05      -2.80730804e-05 
       2.23670423e-07       1.47382640e-05      -2.80730835e-05 
       7.21361924e-07       1.47382648e-05      -2.80682973e-05 
      -2.29209131e-07       1.54319525e-05      -2.93974664e-05 
      -7.34660150e-07       1.54319517e-05      -2.94023560e-05 
       2.27121499e-07       1.54368446e-05      -2.94023592e-05 
       7.32572519e-07       1.54368455e-05      -2.93974696e-05 
      -2.29209131e-07       1.54319525e-05      -2.93974664e-05 
      -7.34660150e-07       1.54319517e-05      -2.94023560e-05 