# vtk DataFile Version 2.0
./output/onsasExample_BladeCantileverBeamPitch_windVel3DDynamic 3D/onsasExample_BladeCantileverBeamPitch_windVel3DDynamic 3D_0154.vtk
ASCII
DATASET UNSTRUCTURED_GRID

POINTS 800 float
      -8.630479e-24      -7.180703e-02      -7.180703e-02 
       9.664436e-24       7.180703e-02      -7.180703e-02 
       8.630479e-24       7.180703e-02       7.180703e-02 
      -9.664436e-24      -7.180703e-02       7.180703e-02 
       2.000000e-01      -7.180702e-02      -7.180706e-02 
       2.000000e-01       7.180705e-02      -7.180706e-02 
       2.000000e-01       7.180705e-02       7.180701e-02 
       2.000000e-01      -7.180702e-02       7.180701e-02 
       2.000000e-01      -7.180702e-02      -7.180706e-02 
       2.000000e-01       7.180705e-02      -7.180706e-02 
       2.000000e-01       7.180705e-02       7.180701e-02 
       2.000000e-01      -7.180702e-02       7.180701e-02 
       4.000000e-01      -7.180698e-02      -7.180713e-02 
       3.999999e-01       7.180709e-02      -7.180713e-02 
       4.000000e-01       7.180709e-02       7.180693e-02 
       4.000001e-01      -7.180698e-02       7.180693e-02 
       4.000000e-01      -7.180698e-02      -7.180713e-02 
       3.999999e-01       7.180709e-02      -7.180713e-02 
       4.000000e-01       7.180709e-02       7.180693e-02 
       4.000001e-01      -7.180698e-02       7.180693e-02 
       6.000000e-01      -7.180691e-02      -7.180726e-02 
       5.999999e-01       7.180716e-02      -7.180726e-02 
       6.000000e-01       7.180716e-02       7.180681e-02 
       6.000001e-01      -7.180691e-02       7.180681e-02 
       6.000000e-01      -7.180691e-02      -7.180726e-02 
       5.999999e-01       7.180716e-02      -7.180726e-02 
       6.000000e-01       7.180716e-02       7.180681e-02 
       6.000001e-01      -7.180691e-02       7.180681e-02 
       8.000000e-01      -7.180682e-02      -7.180743e-02 
       7.999999e-01       7.180725e-02      -7.180743e-02 
       8.000000e-01       7.180725e-02       7.180663e-02 
       8.000001e-01      -7.180682e-02       7.180663e-02 
       8.000000e-01      -7.180682e-02      -7.180743e-02 
       7.999999e-01       7.180725e-02      -7.180743e-02 
       8.000000e-01       7.180725e-02       7.180663e-02 
       8.000001e-01      -7.180682e-02       7.180663e-02 
       1.000000e+00      -7.180670e-02      -7.180765e-02 
       9.999999e-01       7.180737e-02      -7.180765e-02 
       1.000000e+00       7.180737e-02       7.180641e-02 
       1.000000e+00      -7.180670e-02       7.180641e-02 
       1.000000e+00      -7.180670e-02      -7.180765e-02 
       9.999999e-01       7.180737e-02      -7.180765e-02 
       1.000000e+00       7.180737e-02       7.180641e-02 
       1.000000e+00      -7.180670e-02       7.180641e-02 
       1.200000e+00      -7.180655e-02      -7.180792e-02 
       1.200000e+00       7.180751e-02      -7.180792e-02 
       1.200000e+00       7.180751e-02       7.180614e-02 
       1.200000e+00      -7.180655e-02       7.180615e-02 
       1.200000e+00      -7.180655e-02      -7.180792e-02 
       1.200000e+00       7.180751e-02      -7.180792e-02 
       1.200000e+00       7.180751e-02       7.180614e-02 
       1.200000e+00      -7.180655e-02       7.180615e-02 
       1.400000e+00      -7.180638e-02      -7.180823e-02 
       1.400000e+00       7.180768e-02      -7.180823e-02 
       1.400000e+00       7.180768e-02       7.180583e-02 
       1.400000e+00      -7.180638e-02       7.180583e-02 
       1.400000e+00      -7.180638e-02      -7.180823e-02 
       1.400000e+00       7.180768e-02      -7.180823e-02 
       1.400000e+00       7.180768e-02       7.180583e-02 
       1.400000e+00      -7.180638e-02       7.180583e-02 
       1.600000e+00      -7.180619e-02      -7.180859e-02 
       1.600000e+00       7.180788e-02      -7.180859e-02 
       1.600000e+00       7.180788e-02       7.180547e-02 
       1.600000e+00      -7.180619e-02       7.180548e-02 
       1.600000e+00      -7.180619e-02      -7.180859e-02 
       1.600000e+00       7.180788e-02      -7.180859e-02 
       1.600000e+00       7.180788e-02       7.180547e-02 
       1.600000e+00      -7.180619e-02       7.180548e-02 
       1.800000e+00      -7.180597e-02      -7.180899e-02 
       1.800000e+00       7.180809e-02      -7.180899e-02 
       1.800000e+00       7.180810e-02       7.180507e-02 
       1.800000e+00      -7.180597e-02       7.180508e-02 
       1.800000e+00      -7.180597e-02      -7.180899e-02 
       1.800000e+00       7.180809e-02      -7.180899e-02 
       1.800000e+00       7.180810e-02       7.180507e-02 
       1.800000e+00      -7.180597e-02       7.180508e-02 
       2.000000e+00      -7.180573e-02      -7.180943e-02 
       2.000000e+00       7.180833e-02      -7.180943e-02 
       2.000000e+00       7.180834e-02       7.180463e-02 
       2.000000e+00      -7.180573e-02       7.180463e-02 
       2.000000e+00      -7.180573e-02      -7.180943e-02 
       2.000000e+00       7.180833e-02      -7.180943e-02 
       2.000000e+00       7.180834e-02       7.180463e-02 
       2.000000e+00      -7.180573e-02       7.180463e-02 
       2.200000e+00      -7.180547e-02      -7.180992e-02 
       2.200000e+00       7.180860e-02      -7.180992e-02 
       2.200000e+00       7.180860e-02       7.180415e-02 
       2.200000e+00      -7.180547e-02       7.180415e-02 
       2.200000e+00      -7.180547e-02      -7.180992e-02 
       2.200000e+00       7.180860e-02      -7.180992e-02 
       2.200000e+00       7.180860e-02       7.180415e-02 
       2.200000e+00      -7.180547e-02       7.180415e-02 
       2.400000e+00      -7.180518e-02      -7.181044e-02 
       2.400000e+00       7.180888e-02      -7.181044e-02 
       2.400000e+00       7.180888e-02       7.180362e-02 
       2.400000e+00      -7.180518e-02       7.180362e-02 
       2.400000e+00      -7.180518e-02      -7.181044e-02 
       2.400000e+00       7.180888e-02      -7.181044e-02 
       2.400000e+00       7.180888e-02       7.180362e-02 
       2.400000e+00      -7.180518e-02       7.180362e-02 
       2.600000e+00      -7.180488e-02      -7.181101e-02 
       2.600000e+00       7.180919e-02      -7.181101e-02 
       2.600000e+00       7.180919e-02       7.180306e-02 
       2.600000e+00      -7.180488e-02       7.180306e-02 
       2.600000e+00      -7.180488e-02      -7.181101e-02 
       2.600000e+00       7.180919e-02      -7.181101e-02 
       2.600000e+00       7.180919e-02       7.180306e-02 
       2.600000e+00      -7.180488e-02       7.180306e-02 
       2.800000e+00      -7.180455e-02      -7.181161e-02 
       2.800000e+00       7.180952e-02      -7.181161e-02 
       2.800000e+00       7.180952e-02       7.180245e-02 
       2.800000e+00      -7.180455e-02       7.180246e-02 
       2.800000e+00      -7.180455e-02      -7.181161e-02 
       2.800000e+00       7.180952e-02      -7.181161e-02 
       2.800000e+00       7.180952e-02       7.180245e-02 
       2.800000e+00      -7.180455e-02       7.180246e-02 
       3.000000e+00      -7.180420e-02      -7.181225e-02 
       3.000000e+00       7.180986e-02      -7.181225e-02 
       3.000000e+00       7.180987e-02       7.180181e-02 
       3.000000e+00      -7.180420e-02       7.180182e-02 
       3.000000e+00      -7.180420e-02      -7.181225e-02 
       3.000000e+00       7.180986e-02      -7.181225e-02 
       3.000000e+00       7.180987e-02       7.180181e-02 
       3.000000e+00      -7.180420e-02       7.180182e-02 
       3.200000e+00      -7.180383e-02      -7.181293e-02 
       3.200000e+00       7.181023e-02      -7.181293e-02 
       3.200000e+00       7.181023e-02       7.180113e-02 
       3.200000e+00      -7.180383e-02       7.180114e-02 
       3.200000e+00      -7.180383e-02      -7.181293e-02 
       3.200000e+00       7.181023e-02      -7.181293e-02 
       3.200000e+00       7.181023e-02       7.180113e-02 
       3.200000e+00      -7.180383e-02       7.180114e-02 
       3.400000e+00      -7.180345e-02      -7.181364e-02 
       3.400000e+00       7.181062e-02      -7.181365e-02 
       3.400000e+00       7.181062e-02       7.180042e-02 
       3.400000e+00      -7.180344e-02       7.180042e-02 
       3.400000e+00      -7.180345e-02      -7.181364e-02 
       3.400000e+00       7.181062e-02      -7.181365e-02 
       3.400000e+00       7.181062e-02       7.180042e-02 
       3.400000e+00      -7.180344e-02       7.180042e-02 
       3.600000e+00      -7.180304e-02      -7.181439e-02 
       3.600000e+00       7.181103e-02      -7.181440e-02 
       3.600000e+00       7.181103e-02       7.179967e-02 
       3.600000e+00      -7.180304e-02       7.179967e-02 
       3.600000e+00      -7.180304e-02      -7.181439e-02 
       3.600000e+00       7.181103e-02      -7.181440e-02 
       3.600000e+00       7.181103e-02       7.179967e-02 
       3.600000e+00      -7.180304e-02       7.179967e-02 
       3.800000e+00      -7.180261e-02      -7.181518e-02 
       3.800000e+00       7.181145e-02      -7.181518e-02 
       3.800000e+00       7.181146e-02       7.179889e-02 
       3.800000e+00      -7.180261e-02       7.179889e-02 
       3.800000e+00      -7.180261e-02      -7.181518e-02 
       3.800000e+00       7.181145e-02      -7.181518e-02 
       3.800000e+00       7.181146e-02       7.179889e-02 
       3.800000e+00      -7.180261e-02       7.179889e-02 
       4.000000e+00      -7.180217e-02      -7.181599e-02 
       4.000000e+00       7.181190e-02      -7.181600e-02 
       4.000000e+00       7.181190e-02       7.179807e-02 
       4.000000e+00      -7.180217e-02       7.179807e-02 
       4.000000e+00      -7.180217e-02      -7.181599e-02 
       4.000000e+00       7.181190e-02      -7.181600e-02 
       4.000000e+00       7.181190e-02       7.179807e-02 
       4.000000e+00      -7.180217e-02       7.179807e-02 
       4.200000e+00      -7.180171e-02      -7.181684e-02 
[...]
POINT_DATA       800 
VECTORS Displacements float
      -8.63047934e-24       0.00000000e+00       0.00000000e+00 
       9.66443637e-24      -1.38777878e-17       0.00000000e+00 
       8.63047934e-24       0.00000000e+00       0.00000000e+00 
      -9.66443637e-24       1.38777878e-17       0.00000000e+00 
      -8.40017553e-09       1.37313112e-08      -2.54150260e-08 
      -2.81668058e-08       1.37313099e-08      -2.55676631e-08 
       8.32403829e-09       1.38839520e-08      -2.55676677e-08 
       2.80906686e-08       1.38839533e-08      -2.54150306e-08 
      -8.40017553e-09       1.37313112e-08      -2.54150260e-08 
      -2.81668058e-08       1.37313099e-08      -2.55676631e-08 
       8.32403829e-09       1.38839520e-08      -2.55676677e-08 
       2.80906686e-08       1.38839533e-08      -2.54150306e-08 
      -1.66346917e-08       5.47265517e-08      -1.01153667e-07 
      -5.57895311e-08       5.47265463e-08      -1.01458936e-07 
       1.64822610e-08       5.50318354e-08      -1.01458954e-07 
       5.56371004e-08       5.50318408e-08      -1.01153685e-07 
      -1.66346917e-08       5.47265517e-08      -1.01153667e-07 
      -5.57895311e-08       5.47265463e-08      -1.01458936e-07 
       1.64822610e-08       5.50318354e-08      -1.01458954e-07 
       5.56371004e-08       5.50318408e-08      -1.01153685e-07 
      -2.47035472e-08       1.22458724e-07      -2.26227306e-07 
      -8.28681744e-08       1.22458712e-07      -2.26685203e-07 
       2.44746696e-08       1.22916653e-07      -2.26685243e-07 
       8.26392970e-08       1.22916664e-07      -2.26227346e-07 
      -2.47035472e-08       1.22458724e-07      -2.26227306e-07 
      -8.28681744e-08       1.22458712e-07      -2.26685203e-07 
       2.44746696e-08       1.22916653e-07      -2.26685243e-07 
       8.26392970e-08       1.22916664e-07      -2.26227346e-07 
      -3.26067403e-08       2.16400831e-07      -3.99647327e-07 
      -1.09402734e-07       2.16400810e-07      -4.00257848e-07 
       3.23012658e-08       2.17011406e-07      -4.00257918e-07 
       1.09097259e-07       2.17011427e-07      -3.99647397e-07 
      -3.26067403e-08       2.16400831e-07      -3.99647327e-07 
      -1.09402734e-07       2.16400810e-07      -4.00257848e-07 
       3.23012658e-08       2.17011406e-07      -4.00257918e-07 
       1.09097259e-07       2.17011427e-07      -3.99647397e-07 
      -4.03442694e-08       3.36025874e-07      -6.20425115e-07 
      -1.35393209e-07       3.36025843e-07      -6.21188255e-07 
       3.99620508e-08       3.36789099e-07      -6.21188362e-07 
       1.35010990e-07       3.36789130e-07      -6.20425222e-07 
      -4.03442694e-08       3.36025874e-07      -6.20425115e-07 
      -1.35393209e-07       3.36025843e-07      -6.21188255e-07 
       3.99620508e-08       3.36789099e-07      -6.21188362e-07 
       1.35010990e-07       3.36789130e-07      -6.20425222e-07 
      -4.79161333e-08       4.80806857e-07      -8.87572052e-07 
      -1.60839597e-07       4.80806813e-07      -8.88487808e-07 
       4.74570263e-08       4.81722732e-07      -8.88487959e-07 
       1.60380490e-07       4.81722777e-07      -8.87572203e-07 
      -4.79161333e-08       4.80806857e-07      -8.87572052e-07 
      -1.60839597e-07       4.80806813e-07      -8.88487808e-07 
       4.74570263e-08       4.81722732e-07      -8.88487959e-07 
       1.60380490e-07       4.81722777e-07      -8.87572203e-07 
      -5.53223301e-08       6.50216782e-07      -1.20009952e-06 
      -1.85741897e-07       6.50216723e-07      -1.20116789e-06 
       5.47861942e-08       6.51285309e-07      -1.20116809e-06 
       1.85205761e-07       6.51285369e-07      -1.20009972e-06 
      -5.53223301e-08       6.50216782e-07      -1.20009952e-06 
      -1.85741897e-07       6.50216723e-07      -1.20116789e-06 
       5.47861942e-08       6.51285309e-07      -1.20116809e-06 
       1.85205761e-07       6.51285369e-07      -1.20009972e-06 
      -6.25628582e-08       8.43728652e-07      -1.55701891e-06 
      -2.10100106e-07       8.43728576e-07      -1.55823989e-06 
       6.19495553e-08       8.44949833e-07      -1.55824015e-06 
       2.09486803e-07       8.44949909e-07      -1.55701917e-06 
      -6.25628582e-08       8.43728652e-07      -1.55701891e-06 
      -2.10100106e-07       8.43728576e-07      -1.55823989e-06 
       6.19495553e-08       8.44949833e-07      -1.55824015e-06 
       2.09486803e-07       8.44949909e-07      -1.55701917e-06 
      -6.96377167e-08       1.06081547e-06      -1.95734160e-06 
      -2.33914225e-07       1.06081537e-06      -1.95871518e-06 
       6.89471116e-08       1.06218930e-06      -1.95871550e-06 
       2.33223620e-07       1.06218940e-06      -1.95734192e-06 
      -6.96377167e-08       1.06081547e-06      -1.95734160e-06 
      -2.33914225e-07       1.06081537e-06      -1.95871518e-06 
       6.89471116e-08       1.06218930e-06      -1.95871550e-06 
       2.33223620e-07       1.06218940e-06      -1.95734192e-06 
      -7.65469037e-08       1.30095024e-06      -2.40007897e-06 
      -2.57184251e-07       1.30095012e-06      -2.40160516e-06 
       7.57788645e-08       1.30247673e-06      -2.40160555e-06 
       2.56416213e-07       1.30247684e-06      -2.40007936e-06 
      -7.65469037e-08       1.30095024e-06      -2.40007897e-06 
      -2.57184251e-07       1.30095012e-06      -2.40160516e-06 
       7.57788650e-08       1.30247673e-06      -2.40160555e-06 
       2.56416212e-07       1.30247684e-06      -2.40007936e-06 
      -8.32864560e-08       1.56362351e-06      -2.88426995e-06 
      -2.79926635e-07       1.56362338e-06      -2.88593274e-06 
       8.24695285e-08       1.56528666e-06      -2.88593320e-06 
       2.79109708e-07       1.56528679e-06      -2.88427041e-06 
      -8.32864560e-08       1.56362351e-06      -2.88426995e-06 
      -2.79926635e-07       1.56362338e-06      -2.88593274e-06 
       8.24695285e-08       1.56528666e-06      -2.88593320e-06 
       2.79109708e-07       1.56528679e-06      -2.88427041e-06 
      -8.98796810e-08       1.84834713e-06      -3.40901047e-06 
      -3.02184427e-07       1.84834697e-06      -3.41080985e-06 
       8.90135214e-08       1.85014693e-06      -3.41081038e-06 
       3.01318267e-07       1.85014709e-06      -3.40901100e-06 
      -8.98796810e-08       1.84834713e-06      -3.40901047e-06 
      -3.02184427e-07       1.84834697e-06      -3.41080985e-06 
       8.90135214e-08       1.85014693e-06      -3.41081038e-06 
       3.01318267e-07       1.85014709e-06      -3.40901100e-06 
      -9.63265760e-08       2.15465002e-06      -3.97342140e-06 
      -3.23957624e-07       2.15464984e-06      -3.97535738e-06 
       9.54108463e-08       2.15658647e-06      -3.97535799e-06 
       3.23041894e-07       2.15658665e-06      -3.97342202e-06 
      -9.63265760e-08       2.15465002e-06      -3.97342140e-06 
      -3.23957624e-07       2.15464984e-06      -3.97535738e-06 
       9.54108463e-08       2.15658647e-06      -3.97535799e-06 
       3.23041894e-07       2.15658665e-06      -3.97342202e-06 
      -1.02627136e-07       2.48206110e-06      -4.57662365e-06 
      -3.45246221e-07       2.48206089e-06      -4.57869621e-06 
       1.01661507e-07       2.48413421e-06      -4.57869691e-06 
       3.44280592e-07       2.48413442e-06      -4.57662435e-06 
      -1.02627136e-07       2.48206110e-06      -4.57662365e-06 
      -3.45246221e-07       2.48206089e-06      -4.57869621e-06 
       1.01661507e-07       2.48413421e-06      -4.57869691e-06 
       3.44280592e-07       2.48413442e-06      -4.57662435e-06 
      -1.08781359e-07       2.83010930e-06      -5.21773810e-06 
      -3.66050216e-07       2.83010907e-06      -5.21994725e-06 
       1.07765507e-07       2.83231907e-06      -5.21994803e-06 
       3.65034365e-07       2.83231930e-06      -5.21773888e-06 
      -1.08781359e-07       2.83010930e-06      -5.21773810e-06 
      -3.66050216e-07       2.83010907e-06      -5.21994725e-06 
       1.07765507e-07       2.83231907e-06      -5.21994803e-06 
       3.65034365e-07       2.83231930e-06      -5.21773888e-06 
      -1.14789239e-07       3.19832355e-06      -5.89588564e-06 
      -3.86369604e-07       3.19832329e-06      -5.89823138e-06 
       1.13722851e-07       3.20066998e-06      -5.89823225e-06 
       3.85303216e-07       3.20067024e-06      -5.89588651e-06 
      -1.14789239e-07       3.19832355e-06      -5.89588564e-06 
      -3.86369604e-07       3.19832329e-06      -5.89823138e-06 
       1.13722851e-07       3.20066998e-06      -5.89823225e-06 
       3.85303216e-07       3.20067024e-06      -5.89588651e-06 
      -1.20650774e-07       3.58623277e-06      -6.61018715e-06 
      -4.06204382e-07       3.58623248e-06      -6.61266948e-06 
       1.19533542e-07       3.58871586e-06      -6.61267044e-06 
       4.05087150e-07       3.58871614e-06      -6.61018812e-06 
      -1.20650774e-07       3.58623277e-06      -6.61018715e-06 
      -4.06204382e-07       3.58623248e-06      -6.61266948e-06 
       1.19533542e-07       3.58871586e-06      -6.61267044e-06 
       4.05087150e-07       3.58871614e-06      -6.61018812e-06 
      -1.26365961e-07       3.99336588e-06      -7.35976354e-06 
      -4.25554547e-07       3.99336557e-06      -7.36238245e-06 
       1.25197583e-07       3.99598563e-06      -7.36238351e-06 
       4.24386169e-07       3.99598594e-06      -7.35976460e-06 
      -1.26365961e-07       3.99336588e-06      -7.35976354e-06 
      -4.25554547e-07       3.99336557e-06      -7.36238245e-06 
       1.25197583e-07       3.99598563e-06      -7.36238351e-06 
       4.24386169e-07       3.99598594e-06      -7.35976460e-06 
      -1.31934794e-07       4.41925182e-06      -8.14373569e-06 
      -4.44420092e-07       4.41925148e-06      -8.14649118e-06 
       1.30714980e-07       4.42200823e-06      -8.14649234e-06 
       4.43200279e-07       4.42200857e-06      -8.14373684e-06 
      -1.31934794e-07       4.41925182e-06      -8.14373569e-06 
      -4.44420092e-07       4.41925148e-06      -8.14649118e-06 
       1.30714980e-07       4.42200823e-06      -8.14649234e-06 
       4.43200279e-07       4.42200857e-06      -8.14373684e-06 
      -1.37357270e-07       4.86341950e-06      -8.96122448e-06 
      -4.62801017e-07       4.86341913e-06      -8.96411656e-06 
       1.36085735e-07       4.86631257e-06      -8.96411781e-06 
       4.61529481e-07       4.86631294e-06      -8.96122573e-06 
      -1.37357270e-07       4.86341950e-06      -8.96122448e-06 
      -4.62801017e-07       4.86341913e-06      -8.96411656e-06 
       1.36085734e-07       4.86631257e-06      -8.96411781e-06 
       4.61529481e-07       4.86631294e-06      -8.96122573e-06 
      -1.42633017e-07       5.32541523e-06      -9.81137733e-06 
      -4.80717027e-07       5.32541483e-06      -9.81438998e-06 
       1.41329463e-07       5.32842894e-06      -9.81439133e-06 
       4.79413472e-07       5.32842934e-06      -9.81137868e-06 
      -1.42633017e-07       5.32541523e-06      -9.81137733e-06 
      -4.80717027e-07       5.32541483e-06      -9.81438998e-06 
       1.41329463e-07       5.32842894e-06      -9.81439133e-06 
       4.79413472e-07       5.32842934e-06      -9.81137868e-06 
      -1.47780823e-07       5.80480620e-06      -1.06933966e-05 
      -4.98206592e-07       5.80480577e-06      -1.06965298e-05 
       1.46444842e-07       5.80794056e-06      -1.06965313e-05 
       4.96870610e-07       5.80794099e-06      -1.06933981e-05 
      -1.47780823e-07       5.80480620e-06      -1.06933966e-05 
      -4.98206592e-07       5.80480577e-06      -1.06965298e-05 
       1.46444842e-07       5.80794056e-06      -1.06965313e-05 
       4.96870610e-07       5.80794099e-06      -1.06933981e-05 
      -1.52800681e-07       6.30117672e-06      -1.16065097e-05 
      -5.15269707e-07       6.30117626e-06      -1.16097635e-05 
       1.51431879e-07       6.30443173e-06      -1.16097650e-05 
       5.13900904e-07       6.30443218e-06      -1.16065113e-05 
      -1.52800681e-07       6.30117672e-06      -1.16065097e-05 
      -5.15269707e-07       6.30117626e-06      -1.16097635e-05 
       1.51431879e-07       6.30443173e-06      -1.16097650e-05 
       5.13900904e-07       6.30443218e-06      -1.16065113e-05 
      -1.57692587e-07       6.81411108e-06      -1.25499440e-05 
      -5.31906368e-07       6.81411059e-06      -1.25533184e-05 
       1.56290574e-07       6.81748674e-06      -1.25533200e-05 
       5.30504356e-07       6.81748722e-06      -1.25499457e-05 
      -1.57692587e-07       6.81411108e-06      -1.25499440e-05 
      -5.31906368e-07       6.81411059e-06      -1.25533184e-05 
       1.56290574e-07       6.81748674e-06      -1.25533200e-05 
       5.30504356e-07       6.81748722e-06      -1.25499457e-05 
      -1.62456536e-07       7.34319358e-06      -1.35229269e-05 
      -5.48116570e-07       7.34319306e-06      -1.35264218e-05 
       1.61020936e-07       7.34668989e-06      -1.35264236e-05 
       5.46680970e-07       7.34669041e-06      -1.35229286e-05 
      -1.62456536e-07       7.34319358e-06      -1.35229269e-05 
      -5.48116570e-07       7.34319306e-06      -1.35264218e-05 
       1.61020936e-07       7.34668989e-06      -1.35264236e-05 
       5.46680970e-07       7.34669041e-06      -1.35229286e-05 
      -1.67092524e-07       7.88800853e-06      -1.45246857e-05 
      -5.63900308e-07       7.88800798e-06      -1.45283012e-05 
       1.65622969e-07       7.89162548e-06      -1.45283031e-05 
       5.62430753e-07       7.89162603e-06      -1.45246876e-05 
      -1.67092524e-07       7.88800853e-06      -1.45246857e-05 
      -5.63900308e-07       7.88800798e-06      -1.45283012e-05 
       1.65622969e-07       7.89162548e-06      -1.45283031e-05 
       5.62430753e-07       7.89162603e-06      -1.45246876e-05 
      -1.71600544e-07       8.44814022e-06      -1.55544479e-05 
      -5.79257576e-07       8.44813964e-06      -1.55581840e-05 
       1.70096676e-07       8.45187782e-06      -1.55581860e-05 
       5.77753708e-07       8.45187840e-06      -1.55544499e-05 
      -1.71600544e-07       8.44814022e-06      -1.55544479e-05 
      -5.79257576e-07       8.44813964e-06      -1.55581840e-05 
       1.70096676e-07       8.45187782e-06      -1.55581860e-05 
       5.77753708e-07       8.45187840e-06      -1.55544499e-05 
      -1.75980591e-07       9.02317295e-06      -1.66114409e-05 
      -5.94188370e-07       9.02317234e-06      -1.66152975e-05 
       1.74442065e-07       9.02703120e-06      -1.66152996e-05 
       5.92649844e-07       9.02703181e-06      -1.66114429e-05 
      -1.75980591e-07       9.02317295e-06      -1.66114409e-05 
      -5.94188370e-07       9.02317234e-06      -1.66152975e-05 
       1.74442065e-07       9.02703120e-06      -1.66152996e-05 
       5.92649844e-07       9.02703181e-06      -1.66114429e-05 
      -1.80232663e-07       9.61269102e-06      -1.76948919e-05 
      -6.08692685e-07       9.61269038e-06      -1.76988691e-05 
       1.78659139e-07       9.61666992e-06      -1.76988713e-05 
       6.07119161e-07       9.61667056e-06      -1.76948941e-05 
      -1.80232663e-07       9.61269102e-06      -1.76948919e-05 
      -6.08692685e-07       9.61269038e-06      -1.76988691e-05 
       1.78659139e-07       9.61666992e-06      -1.76988713e-05 
       6.07119161e-07       9.61667056e-06      -1.76948941e-05 
      -1.84356754e-07       1.02162787e-05      -1.88040285e-05 
      -6.22770517e-07       1.02162781e-05      -1.88081262e-05 
       1.82747902e-07       1.02203783e-05      -1.88081285e-05 
       6.21161665e-07       1.02203790e-05      -1.88040307e-05 
      -1.84356754e-07       1.02162787e-05      -1.88040285e-05 
      -6.22770517e-07       1.02162781e-05      -1.88081262e-05 
       1.82747902e-07       1.02203783e-05      -1.88081285e-05 
       6.21161665e-07       1.02203790e-05      -1.88040307e-05 
      -1.88355441e-07       1.08335377e-05      -1.99381038e-05 
      -6.36444315e-07       1.08335370e-05      -1.99423061e-05 
       1.86724106e-07       1.08377418e-05      -1.99423084e-05 
       6.34812980e-07       1.08377425e-05      -1.99381061e-05 
      -1.88355441e-07       1.08335377e-05      -1.99381038e-05 
      -6.36444315e-07       1.08335370e-05      -1.99423061e-05 
       1.86724106e-07       1.08377418e-05      -1.99423084e-05 
       6.34812980e-07       1.08377425e-05      -1.99381061e-05 
      -1.92244035e-07       1.14640900e-05      -2.10964249e-05 
      -6.49749061e-07       1.14640893e-05      -2.11007318e-05 
       1.90589827e-07       1.14683988e-05      -2.11007342e-05 
       6.48094854e-07       1.14683995e-05      -2.10964274e-05 
      -1.92244035e-07       1.14640900e-05      -2.10964249e-05 
      -6.49749061e-07       1.14640893e-05      -2.11007318e-05 
       1.90589827e-07       1.14683988e-05      -2.11007342e-05 
       6.48094854e-07       1.14683995e-05      -2.10964274e-05 
      -1.96022531e-07       1.21075752e-05      -2.22783241e-05 
      -6.62684750e-07       1.21075744e-05      -2.22827355e-05 
       1.94345075e-07       1.21119886e-05      -2.22827381e-05 
       6.61007294e-07       1.21119894e-05      -2.22783267e-05 
      -1.96022531e-07       1.21075752e-05      -2.22783241e-05 
      -6.62684750e-07       1.21075744e-05      -2.22827355e-05 
       1.94345075e-07       1.21119886e-05      -2.22827381e-05 
       6.61007294e-07       1.21119894e-05      -2.22783267e-05 
      -1.99690925e-07       1.27636326e-05      -2.34831336e-05 
      -6.75251377e-07       1.27636318e-05      -2.34876495e-05 
       1.97989852e-07       1.27681506e-05      -2.34876522e-05 
       6.73550303e-07       1.27681514e-05      -2.34831363e-05 
      -1.99690925e-07       1.27636326e-05      -2.34831336e-05 
      -6.75251377e-07       1.27636318e-05      -2.34876495e-05 
       1.97989852e-07       1.27681506e-05      -2.34876522e-05 
       6.73550303e-07       1.27681514e-05      -2.34831363e-05 
      -2.03249212e-07       1.34319015e-05      -2.47101855e-05 
      -6.87448936e-07       1.34319007e-05      -2.47148060e-05 
       2.01524164e-07       1.34365241e-05      -2.47148087e-05 
       6.85723887e-07       1.34365249e-05      -2.47101883e-05 
      -2.03249212e-07       1.34319015e-05      -2.47101855e-05 
      -6.87448936e-07       1.34319007e-05      -2.47148060e-05 
       2.01524164e-07       1.34365241e-05      -2.47148087e-05 
       6.85723887e-07       1.34365249e-05      -2.47101883e-05 
      -2.06697385e-07       1.41120213e-05      -2.59588121e-05 
      -6.99277422e-07       1.41120204e-05      -2.59635371e-05 
       2.04948016e-07       1.41167485e-05      -2.59635399e-05 
       6.97528052e-07       1.41167494e-05      -2.59588149e-05 
      -2.06697385e-07       1.41120213e-05      -2.59588121e-05 
      -6.99277422e-07       1.41120204e-05      -2.59635371e-05 
       2.04948016e-07       1.41167485e-05      -2.59635399e-05 
       6.97528052e-07       1.41167494e-05      -2.59588149e-05 
      -2.10035441e-07       1.48036314e-05      -2.72283454e-05 
      -7.10736830e-07       1.48036305e-05      -2.72331750e-05 
       2.08261414e-07       1.48084633e-05      -2.72331779e-05 
       7.08962804e-07       1.48084641e-05      -2.72283484e-05 
      -2.10035441e-07       1.48036314e-05      -2.72283454e-05 
      -7.10736830e-07       1.48036305e-05      -2.72331750e-05 
       2.08261414e-07       1.48084633e-05      -2.72331779e-05 
       7.08962804e-07       1.48084641e-05      -2.72283484e-05 
      -2.13263371e-07       1.55063712e-05      -2.85181178e-05 
      -7.21827154e-07       1.55063703e-05      -2.85230519e-05 
       2.11464364e-07       1.55113077e-05      -2.85230549e-05 
       7.20028147e-07       1.55113086e-05      -2.85181209e-05 
      -2.13263371e-07       1.55063712e-05      -2.85181178e-05 
      -7.21827154e-07       1.55063703e-05      -2.85230519e-05 