# vtk DataFile Version 2.0
./output/onsasExample_BladeCantileverBeamPitch_windVel3DDynamic 3D/onsasExample_BladeCantileverBeamPitch_windVel3DDynamic 3D_0323.vtk
ASCII
DATASET UNSTRUCTURED_GRID

POINTS 800 float
      -1.861717e-23      -7.180703e-02      -7.180703e-02 
       1.229231e-23       7.180703e-02      -7.180703e-02 
       1.861717e-23       7.180703e-02       7.180703e-02 
      -1.229231e-23      -7.180703e-02       7.180703e-02 
       2.000000e-01      -7.180702e-02      -7.180706e-02 
       2.000000e-01       7.180705e-02      -7.180706e-02 
       2.000000e-01       7.180705e-02       7.180701e-02 
       2.000000e-01      -7.180702e-02       7.180701e-02 
       2.000000e-01      -7.180702e-02      -7.180706e-02 
       2.000000e-01       7.180705e-02      -7.180706e-02 
       2.000000e-01       7.180705e-02       7.180701e-02 
       2.000000e-01      -7.180702e-02       7.180701e-02 
       4.000000e-01      -7.180698e-02      -7.180714e-02 
       3.999999e-01       7.180709e-02      -7.180714e-02 
       4.000000e-01       7.180709e-02       7.180693e-02 
       4.000001e-01      -7.180698e-02       7.180693e-02 
       4.000000e-01      -7.180698e-02      -7.180714e-02 
       3.999999e-01       7.180709e-02      -7.180714e-02 
       4.000000e-01       7.180709e-02       7.180693e-02 
       4.000001e-01      -7.180698e-02       7.180693e-02 
       6.000000e-01      -7.180691e-02      -7.180727e-02 
       5.999999e-01       7.180715e-02      -7.180727e-02 
       6.000000e-01       7.180716e-02       7.180679e-02 
       6.000001e-01      -7.180691e-02       7.180679e-02 
       6.000000e-01      -7.180691e-02      -7.180727e-02 
       5.999999e-01       7.180715e-02      -7.180727e-02 
       6.000000e-01       7.180716e-02       7.180679e-02 
       6.000001e-01      -7.180691e-02       7.180679e-02 
       8.000000e-01      -7.180682e-02      -7.180746e-02 
       7.999999e-01       7.180725e-02      -7.180746e-02 
       8.000000e-01       7.180725e-02       7.180661e-02 
       8.000001e-01      -7.180682e-02       7.180661e-02 
       8.000000e-01      -7.180682e-02      -7.180746e-02 
       7.999999e-01       7.180725e-02      -7.180746e-02 
       8.000000e-01       7.180725e-02       7.180661e-02 
       8.000001e-01      -7.180682e-02       7.180661e-02 
       1.000000e+00      -7.180670e-02      -7.180769e-02 
       9.999999e-01       7.180737e-02      -7.180769e-02 
       1.000000e+00       7.180737e-02       7.180637e-02 
       1.000000e+00      -7.180670e-02       7.180637e-02 
       1.000000e+00      -7.180670e-02      -7.180769e-02 
       9.999999e-01       7.180737e-02      -7.180769e-02 
       1.000000e+00       7.180737e-02       7.180637e-02 
       1.000000e+00      -7.180670e-02       7.180637e-02 
       1.200000e+00      -7.180655e-02      -7.180798e-02 
       1.200000e+00       7.180751e-02      -7.180798e-02 
       1.200000e+00       7.180751e-02       7.180609e-02 
       1.200000e+00      -7.180655e-02       7.180609e-02 
       1.200000e+00      -7.180655e-02      -7.180798e-02 
       1.200000e+00       7.180751e-02      -7.180798e-02 
       1.200000e+00       7.180751e-02       7.180609e-02 
       1.200000e+00      -7.180655e-02       7.180609e-02 
       1.400000e+00      -7.180639e-02      -7.180831e-02 
       1.400000e+00       7.180768e-02      -7.180831e-02 
       1.400000e+00       7.180768e-02       7.180575e-02 
       1.400000e+00      -7.180639e-02       7.180575e-02 
       1.400000e+00      -7.180639e-02      -7.180831e-02 
       1.400000e+00       7.180768e-02      -7.180831e-02 
       1.400000e+00       7.180768e-02       7.180575e-02 
       1.400000e+00      -7.180639e-02       7.180575e-02 
       1.600000e+00      -7.180619e-02      -7.180869e-02 
       1.600000e+00       7.180787e-02      -7.180869e-02 
       1.600000e+00       7.180787e-02       7.180537e-02 
       1.600000e+00      -7.180619e-02       7.180537e-02 
       1.600000e+00      -7.180619e-02      -7.180869e-02 
       1.600000e+00       7.180787e-02      -7.180869e-02 
       1.600000e+00       7.180787e-02       7.180537e-02 
       1.600000e+00      -7.180619e-02       7.180537e-02 
       1.800000e+00      -7.180598e-02      -7.180912e-02 
       1.800000e+00       7.180809e-02      -7.180912e-02 
       1.800000e+00       7.180809e-02       7.180495e-02 
       1.800000e+00      -7.180598e-02       7.180495e-02 
       1.800000e+00      -7.180598e-02      -7.180912e-02 
       1.800000e+00       7.180809e-02      -7.180912e-02 
       1.800000e+00       7.180809e-02       7.180495e-02 
       1.800000e+00      -7.180598e-02       7.180495e-02 
       2.000000e+00      -7.180574e-02      -7.180959e-02 
       2.000000e+00       7.180833e-02      -7.180959e-02 
       2.000000e+00       7.180833e-02       7.180447e-02 
       2.000000e+00      -7.180574e-02       7.180447e-02 
       2.000000e+00      -7.180574e-02      -7.180959e-02 
       2.000000e+00       7.180833e-02      -7.180959e-02 
       2.000000e+00       7.180833e-02       7.180447e-02 
       2.000000e+00      -7.180574e-02       7.180447e-02 
       2.200000e+00      -7.180548e-02      -7.181011e-02 
       2.200000e+00       7.180859e-02      -7.181011e-02 
       2.200000e+00       7.180859e-02       7.180396e-02 
       2.200000e+00      -7.180548e-02       7.180396e-02 
       2.200000e+00      -7.180548e-02      -7.181011e-02 
       2.200000e+00       7.180859e-02      -7.181011e-02 
       2.200000e+00       7.180859e-02       7.180396e-02 
       2.200000e+00      -7.180548e-02       7.180396e-02 
       2.400000e+00      -7.180519e-02      -7.181067e-02 
       2.400000e+00       7.180887e-02      -7.181067e-02 
       2.400000e+00       7.180887e-02       7.180340e-02 
       2.400000e+00      -7.180519e-02       7.180340e-02 
       2.400000e+00      -7.180519e-02      -7.181067e-02 
       2.400000e+00       7.180887e-02      -7.181067e-02 
       2.400000e+00       7.180887e-02       7.180340e-02 
       2.400000e+00      -7.180519e-02       7.180340e-02 
       2.600000e+00      -7.180489e-02      -7.181127e-02 
       2.600000e+00       7.180918e-02      -7.181127e-02 
       2.600000e+00       7.180918e-02       7.180279e-02 
       2.600000e+00      -7.180489e-02       7.180279e-02 
       2.600000e+00      -7.180489e-02      -7.181127e-02 
       2.600000e+00       7.180918e-02      -7.181127e-02 
       2.600000e+00       7.180918e-02       7.180279e-02 
       2.600000e+00      -7.180489e-02       7.180279e-02 
       2.800000e+00      -7.180456e-02      -7.181192e-02 
       2.800000e+00       7.180950e-02      -7.181192e-02 
       2.800000e+00       7.180950e-02       7.180215e-02 
       2.800000e+00      -7.180456e-02       7.180215e-02 
       2.800000e+00      -7.180456e-02      -7.181192e-02 
       2.800000e+00       7.180950e-02      -7.181192e-02 
       2.800000e+00       7.180950e-02       7.180215e-02 
       2.800000e+00      -7.180456e-02       7.180215e-02 
       3.000000e+00      -7.180422e-02      -7.181260e-02 
       3.000000e+00       7.180985e-02      -7.181260e-02 
       3.000000e+00       7.180985e-02       7.180146e-02 
       3.000000e+00      -7.180422e-02       7.180147e-02 
       3.000000e+00      -7.180422e-02      -7.181260e-02 
       3.000000e+00       7.180985e-02      -7.181260e-02 
       3.000000e+00       7.180985e-02       7.180146e-02 
       3.000000e+00      -7.180422e-02       7.180147e-02 
       3.200000e+00      -7.180385e-02      -7.181333e-02 
       3.200000e+00       7.181021e-02      -7.181333e-02 
       3.200000e+00       7.181022e-02       7.180074e-02 
       3.200000e+00      -7.180385e-02       7.180074e-02 
       3.200000e+00      -7.180385e-02      -7.181333e-02 
       3.200000e+00       7.181021e-02      -7.181333e-02 
       3.200000e+00       7.181022e-02       7.180074e-02 
       3.200000e+00      -7.180385e-02       7.180074e-02 
       3.400000e+00      -7.180347e-02      -7.181409e-02 
       3.400000e+00       7.181060e-02      -7.181409e-02 
       3.400000e+00       7.181060e-02       7.179997e-02 
       3.400000e+00      -7.180346e-02       7.179998e-02 
       3.400000e+00      -7.180347e-02      -7.181409e-02 
       3.400000e+00       7.181060e-02      -7.181409e-02 
       3.400000e+00       7.181060e-02       7.179997e-02 
       3.400000e+00      -7.180346e-02       7.179998e-02 
       3.600000e+00      -7.180306e-02      -7.181489e-02 
       3.600000e+00       7.181100e-02      -7.181489e-02 
       3.600000e+00       7.181101e-02       7.179917e-02 
       3.600000e+00      -7.180306e-02       7.179918e-02 
       3.600000e+00      -7.180306e-02      -7.181489e-02 
       3.600000e+00       7.181100e-02      -7.181489e-02 
       3.600000e+00       7.181101e-02       7.179917e-02 
       3.600000e+00      -7.180306e-02       7.179918e-02 
       3.800000e+00      -7.180264e-02      -7.181573e-02 
       3.800000e+00       7.181143e-02      -7.181573e-02 
       3.800000e+00       7.181143e-02       7.179833e-02 
       3.800000e+00      -7.180264e-02       7.179834e-02 
       3.800000e+00      -7.180264e-02      -7.181573e-02 
       3.800000e+00       7.181143e-02      -7.181573e-02 
       3.800000e+00       7.181143e-02       7.179833e-02 
       3.800000e+00      -7.180264e-02       7.179834e-02 
       4.000000e+00      -7.180220e-02      -7.181660e-02 
       4.000000e+00       7.181187e-02      -7.181661e-02 
       4.000000e+00       7.181187e-02       7.179746e-02 
       4.000000e+00      -7.180219e-02       7.179746e-02 
       4.000000e+00      -7.180220e-02      -7.181660e-02 
       4.000000e+00       7.181187e-02      -7.181661e-02 
       4.000000e+00       7.181187e-02       7.179746e-02 
       4.000000e+00      -7.180219e-02       7.179746e-02 
       4.200000e+00      -7.180174e-02      -7.181751e-02 
[...]
POINT_DATA       800 
VECTORS Displacements float
      -1.86171688e-23       0.00000000e+00       0.00000000e+00 
       1.22923090e-23      -1.38777878e-17      -1.38777878e-17 
       1.86171688e-23       0.00000000e+00       0.00000000e+00 
      -1.22923090e-23       1.38777878e-17       1.38777878e-17 
      -9.62889385e-09       1.36617457e-08      -2.70519554e-08 
      -2.92961414e-08       1.36617444e-08      -2.72053910e-08 
       9.54190851e-09       1.38151852e-08      -2.72053962e-08 
       2.92091561e-08       1.38151866e-08      -2.70519607e-08 
      -9.62889385e-09       1.36617457e-08      -2.70519554e-08 
      -2.92961414e-08       1.36617444e-08      -2.72053910e-08 
       9.54190851e-09       1.38151852e-08      -2.72053962e-08 
       2.92091561e-08       1.38151866e-08      -2.70519607e-08 
      -1.90796005e-08       5.44488075e-08      -1.07678626e-07 
      -5.80353721e-08       5.44488022e-08      -1.07985492e-07 
       1.89054576e-08       5.47556890e-08      -1.07985512e-07 
       5.78612293e-08       5.47556943e-08      -1.07678646e-07 
      -1.90796005e-08       5.44488075e-08      -1.07678626e-07 
      -5.80353721e-08       5.44488022e-08      -1.07985492e-07 
       1.89054576e-08       5.47556890e-08      -1.07985512e-07 
       5.78612293e-08       5.47556943e-08      -1.07678646e-07 
      -2.83521183e-08       1.21833767e-07      -2.40856058e-07 
      -8.62176905e-08       1.21833755e-07      -2.41316350e-07 
       2.80906489e-08       1.22294093e-07      -2.41316395e-07 
       8.59562211e-08       1.22294105e-07      -2.40856104e-07 
      -2.83521183e-08       1.21833767e-07      -2.40856058e-07 
      -8.62176905e-08       1.21833755e-07      -2.41316350e-07 
       2.80906489e-08       1.22294093e-07      -2.41316395e-07 
       8.59562211e-08       1.22294105e-07      -2.40856104e-07 
      -3.74464455e-08       2.15289206e-07      -4.25560300e-07 
      -1.13843095e-07       2.15289186e-07      -4.26174013e-07 
       3.70974840e-08       2.15902979e-07      -4.26174092e-07 
       1.13494133e-07       2.15902999e-07      -4.25560379e-07 
      -3.74464455e-08       2.15289206e-07      -4.25560300e-07 
      -1.13843095e-07       2.15289186e-07      -4.26174013e-07 
       3.70974840e-08       2.15902979e-07      -4.26174092e-07 
       1.13494133e-07       2.15902999e-07      -4.25560379e-07 
      -4.63625806e-08       3.34287706e-07      -6.60767399e-07 
      -1.40911584e-07       3.34287675e-07      -6.61534529e-07 
       4.59259646e-08       3.35054927e-07      -6.61534650e-07 
       1.40474968e-07       3.35054958e-07      -6.60767521e-07 
      -4.63625806e-08       3.34287706e-07      -6.60767399e-07 
      -1.40911584e-07       3.34287675e-07      -6.61534529e-07 
       4.59259646e-08       3.35054927e-07      -6.61534650e-07 
       1.40474968e-07       3.35054958e-07      -6.60767521e-07 
      -5.51005219e-08       4.78301849e-07      -9.45453402e-07 
      -1.67423155e-07       4.78301805e-07      -9.46373945e-07 
       5.45760925e-08       4.79222521e-07      -9.46374116e-07 
       1.66898726e-07       4.79222565e-07      -9.45453574e-07 
      -5.51005219e-08       4.78301849e-07      -9.45453402e-07 
      -1.67423155e-07       4.78301805e-07      -9.46373945e-07 
       5.45760925e-08       4.79222521e-07      -9.46374116e-07 
       1.66898726e-07       4.79222565e-07      -9.45453574e-07 
      -6.36602675e-08       6.46804216e-07      -1.27859436e-06 
      -1.93377808e-07       6.46804157e-07      -1.27966831e-06 
       6.30478694e-08       6.47878340e-07      -1.27966854e-06 
       1.92765409e-07       6.47878399e-07      -1.27859459e-06 
      -6.36602675e-08       6.46804216e-07      -1.27859436e-06 
      -1.93377808e-07       6.46804157e-07      -1.27966831e-06 
       6.30478694e-08       6.47878340e-07      -1.27966854e-06 
       1.92765409e-07       6.47878399e-07      -1.27859459e-06 
      -7.20418165e-08       8.39267389e-07      -1.65916631e-06 
      -2.18775540e-07       8.39267314e-07      -1.66039367e-06 
       7.13412964e-08       8.40494968e-07      -1.66039396e-06 
       2.18075020e-07       8.40495042e-07      -1.65916660e-06 
      -7.20418165e-08       8.39267389e-07      -1.65916631e-06 
      -2.18775540e-07       8.39267314e-07      -1.66039367e-06 
       7.13412964e-08       8.40494968e-07      -1.66039396e-06 
       2.18075020e-07       8.40495042e-07      -1.65916660e-06 
      -8.02451667e-08       1.05516395e-06      -2.08614531e-06 
      -2.43616350e-07       1.05516386e-06      -2.08752607e-06 
       7.94563759e-08       1.05654498e-06      -2.08752644e-06 
       2.42827559e-07       1.05654508e-06      -2.08614568e-06 
      -8.02451667e-08       1.05516395e-06      -2.08614531e-06 
      -2.43616350e-07       1.05516386e-06      -2.08752607e-06 
       7.94563759e-08       1.05654498e-06      -2.08752644e-06 
       2.42827559e-07       1.05654508e-06      -2.08614568e-06 
      -8.82703164e-08       1.29396648e-06      -2.55850741e-06 
      -2.67900235e-07       1.29396637e-06      -2.56004157e-06 
       8.73931087e-08       1.29550097e-06      -2.56004201e-06 
       2.67023028e-07       1.29550108e-06      -2.55850785e-06 
      -8.82703162e-08       1.29396648e-06      -2.55850741e-06 
      -2.67900235e-07       1.29396637e-06      -2.56004157e-06 
       8.73931087e-08       1.29550097e-06      -2.56004201e-06 
       2.67023028e-07       1.29550108e-06      -2.55850785e-06 
      -9.61115090e-08       1.55516470e-06      -3.07525373e-06 
      -2.91641236e-07       1.55516457e-06      -3.07692524e-06 
       9.51748071e-08       1.55683660e-06      -3.07692576e-06 
       2.90704533e-07       1.55683673e-06      -3.07525426e-06 
      -9.61115090e-08       1.55516470e-06      -3.07525373e-06 
      -2.91641236e-07       1.55516457e-06      -3.07692524e-06 
       9.51748071e-08       1.55683660e-06      -3.07692576e-06 
       2.90704533e-07       1.55683673e-06      -3.07525426e-06 
      -1.03793033e-07       1.83826963e-06      -3.63544091e-06 
      -3.14884065e-07       1.83826947e-06      -3.63724976e-06 
       1.02796454e-07       1.84007893e-06      -3.63725037e-06 
       3.13887487e-07       1.84007909e-06      -3.63544152e-06 
      -1.03793033e-07       1.83826963e-06      -3.63544091e-06 
      -3.14884065e-07       1.83826947e-06      -3.63724976e-06 
       1.02796454e-07       1.84007893e-06      -3.63725037e-06 
       3.13887487e-07       1.84007909e-06      -3.63544152e-06 
      -1.11314884e-07       2.14280986e-06      -4.23815229e-06 
      -3.37628722e-07       2.14280968e-06      -4.24009848e-06 
       1.10258054e-07       2.14475657e-06      -4.24009918e-06 
       3.36571892e-07       2.14475675e-06      -4.23815299e-06 
      -1.11314884e-07       2.14280986e-06      -4.23815229e-06 
      -3.37628722e-07       2.14280968e-06      -4.24009848e-06 
       1.10258054e-07       2.14475657e-06      -4.24009918e-06 
       3.36571892e-07       2.14475675e-06      -4.23815299e-06 
      -1.18677057e-07       2.46831399e-06      -4.88247122e-06 
      -3.59875200e-07       2.46831379e-06      -4.88455475e-06 
       1.17559611e-07       2.47039811e-06      -4.88455554e-06 
       3.58757754e-07       2.47039831e-06      -4.88247202e-06 
      -1.18677057e-07       2.46831399e-06      -4.88247122e-06 
      -3.59875200e-07       2.46831379e-06      -4.88455475e-06 
       1.17559611e-07       2.47039811e-06      -4.88455554e-06 
       3.58757754e-07       2.47039831e-06      -4.88247202e-06 
      -1.25879550e-07       2.81431061e-06      -5.56748104e-06 
      -3.81623496e-07       2.81431039e-06      -5.56970190e-06 
       1.24701129e-07       2.81653215e-06      -5.56970280e-06 
       3.80445075e-07       2.81653237e-06      -5.56748194e-06 
      -1.25879550e-07       2.81431061e-06      -5.56748104e-06 
      -3.81623496e-07       2.81431039e-06      -5.56970190e-06 
       1.24701129e-07       2.81653215e-06      -5.56970280e-06 
       3.80445075e-07       2.81653237e-06      -5.56748194e-06 
      -1.32922358e-07       3.18032833e-06      -6.29226511e-06 
      -4.02873607e-07       3.18032808e-06      -6.29462330e-06 
       1.31682611e-07       3.18268727e-06      -6.29462430e-06 
       4.01633860e-07       3.18268753e-06      -6.29226610e-06 
      -1.32922358e-07       3.18032833e-06      -6.29226511e-06 
      -4.02873607e-07       3.18032808e-06      -6.29462330e-06 
       1.31682611e-07       3.18268727e-06      -6.29462430e-06 
       4.01633860e-07       3.18268753e-06      -6.29226610e-06 
      -1.39805475e-07       3.56589574e-06      -7.05590676e-06 
      -4.23625527e-07       3.56589545e-06      -7.05840229e-06 
       1.38504062e-07       3.56839209e-06      -7.05840339e-06 
       4.22324114e-07       3.56839237e-06      -7.05590786e-06 
      -1.39805475e-07       3.56589574e-06      -7.05590676e-06 
      -4.23625527e-07       3.56589545e-06      -7.05840229e-06 
       1.38504062e-07       3.56839209e-06      -7.05840339e-06 
       4.22324114e-07       3.56839237e-06      -7.05590786e-06 
      -1.46528900e-07       3.97054143e-06      -7.85748935e-06 
      -4.43879253e-07       3.97054112e-06      -7.86012221e-06 
       1.45165487e-07       3.97317519e-06      -7.86012342e-06 
       4.42515840e-07       3.97317550e-06      -7.85749056e-06 
      -1.46528900e-07       3.97054143e-06      -7.85748935e-06 
      -4.43879253e-07       3.97054112e-06      -7.86012221e-06 
       1.45165487e-07       3.97317519e-06      -7.86012342e-06 
       4.42515840e-07       3.97317550e-06      -7.85749056e-06 
      -1.53092627e-07       4.39379400e-06      -8.69609623e-06 
      -4.63634781e-07       4.39379366e-06      -8.69886642e-06 
       1.51666889e-07       4.39656518e-06      -8.69886773e-06 
       4.62209043e-07       4.39656552e-06      -8.69609755e-06 
      -1.53092627e-07       4.39379400e-06      -8.69609623e-06 
      -4.63634781e-07       4.39379366e-06      -8.69886642e-06 
       1.51666889e-07       4.39656518e-06      -8.69886773e-06 
       4.62209043e-07       4.39656552e-06      -8.69609755e-06 
      -1.59496653e-07       4.83518205e-06      -9.57081074e-06 
      -4.82892107e-07       4.83518169e-06      -9.57371825e-06 
       1.58008270e-07       4.83809065e-06      -9.57371968e-06 
       4.81403726e-07       4.83809101e-06      -9.57081217e-06 
      -1.59496653e-07       4.83518205e-06      -9.57081074e-06 
      -4.82892107e-07       4.83518169e-06      -9.57371825e-06 
       1.58008271e-07       4.83809065e-06      -9.57371968e-06 
       4.81403726e-07       4.83809101e-06      -9.57081217e-06 
      -1.65740175e-07       5.29425164e-06      -1.04807426e-05 
      -5.01670677e-07       5.29425124e-06      -1.04837713e-05 
       1.64209349e-07       5.29728155e-06      -1.04837729e-05 
       5.00139850e-07       5.29728195e-06      -1.04807441e-05 
      -1.65740175e-07       5.29425164e-06      -1.04807426e-05 
      -5.01670677e-07       5.29425124e-06      -1.04837713e-05 
       1.64209349e-07       5.29728155e-06      -1.04837729e-05 
       5.00139850e-07       5.29728195e-06      -1.04807441e-05 
      -1.71842567e-07       5.77057020e-06      -1.14250571e-05 
      -5.20009990e-07       5.77056978e-06      -1.14282071e-05 
       1.70268842e-07       5.77372144e-06      -1.14282088e-05 
       5.18436265e-07       5.77372187e-06      -1.14250588e-05 
      -1.71842567e-07       5.77057020e-06      -1.14250571e-05 
      -5.20009990e-07       5.77056978e-06      -1.14282071e-05 
       1.70268842e-07       5.77372144e-06      -1.14282088e-05 
       5.18436265e-07       5.77372187e-06      -1.14250588e-05 
      -1.77803821e-07       6.26372258e-06      -1.24029455e-05 
      -5.37910041e-07       6.26372213e-06      -1.24062168e-05 
       1.76186755e-07       6.26699514e-06      -1.24062185e-05 
       5.36292976e-07       6.26699560e-06      -1.24029473e-05 
      -1.77803821e-07       6.26372258e-06      -1.24029455e-05 
      -5.37910041e-07       6.26372213e-06      -1.24062168e-05 
       1.76186755e-07       6.26699514e-06      -1.24062185e-05 
       5.36292976e-07       6.26699560e-06      -1.24029473e-05 
      -1.83623934e-07       6.77329359e-06      -1.34135989e-05 
      -5.55370828e-07       6.77329311e-06      -1.34169914e-05 
       1.81963093e-07       6.77668748e-06      -1.34169933e-05 
       5.53709986e-07       6.77668796e-06      -1.34136008e-05 
      -1.83623934e-07       6.77329359e-06      -1.34135989e-05 
      -5.55370828e-07       6.77329311e-06      -1.34169914e-05 
       1.81963093e-07       6.77668748e-06      -1.34169933e-05 
       5.53709986e-07       6.77668796e-06      -1.34136008e-05 
      -1.89302900e-07       7.29886806e-06      -1.44562083e-05 
      -5.72392342e-07       7.29886755e-06      -1.44597220e-05 
       1.87597861e-07       7.30238327e-06      -1.44597240e-05 
       5.70687304e-07       7.30238379e-06      -1.44562103e-05 
      -1.89302900e-07       7.29886806e-06      -1.44562083e-05 
      -5.72392342e-07       7.29886755e-06      -1.44597220e-05 
       1.87597861e-07       7.30238327e-06      -1.44597240e-05 
       5.70687304e-07       7.30238379e-06      -1.44562103e-05 
      -1.94840712e-07       7.84003082e-06      -1.55299650e-05 
      -5.88974579e-07       7.84003028e-06      -1.55335999e-05 
       1.93091065e-07       7.84366735e-06      -1.55336020e-05 
       5.87224932e-07       7.84366790e-06      -1.55299671e-05 
      -1.94840712e-07       7.84003082e-06      -1.55299650e-05 
      -5.88974579e-07       7.84003028e-06      -1.55335999e-05 
       1.93091065e-07       7.84366735e-06      -1.55336020e-05 
       5.87224932e-07       7.84366790e-06      -1.55299671e-05 
      -2.00237368e-07       8.39636669e-06      -1.66340598e-05 
      -6.05117535e-07       8.39636612e-06      -1.66378160e-05 
       1.98442710e-07       8.40012455e-06      -1.66378183e-05 
       6.03322877e-07       8.40012512e-06      -1.66340621e-05 
      -2.00237368e-07       8.39636669e-06      -1.66340598e-05 
      -6.05117535e-07       8.39636612e-06      -1.66378160e-05 
       1.98442710e-07       8.40012455e-06      -1.66378183e-05 
       6.03322877e-07       8.40012512e-06      -1.66340621e-05 
      -2.05492858e-07       8.96746049e-06      -1.77676841e-05 
      -6.20821201e-07       8.96745989e-06      -1.77715615e-05 
       2.03652803e-07       8.97133968e-06      -1.77715639e-05 
       6.18981145e-07       8.97134028e-06      -1.77676865e-05 
      -2.05492858e-07       8.96746049e-06      -1.77676841e-05 
      -6.20821201e-07       8.96745989e-06      -1.77715615e-05 
       2.03652803e-07       8.97133968e-06      -1.77715639e-05 
       6.18981145e-07       8.97134028e-06      -1.77676865e-05 
      -2.10607182e-07       9.55289706e-06      -1.89300289e-05 
      -6.36085575e-07       9.55289643e-06      -1.89340276e-05 
       2.08721347e-07       9.55689757e-06      -1.89340300e-05 
       6.34199740e-07       9.55689820e-06      -1.89300314e-05 
      -2.10607182e-07       9.55289706e-06      -1.89300289e-05 
      -6.36085575e-07       9.55289643e-06      -1.89340276e-05 
       2.08721347e-07       9.55689757e-06      -1.89340300e-05 
       6.34199740e-07       9.55689820e-06      -1.89300314e-05 
      -2.15580331e-07       1.01522612e-05      -2.01202853e-05 
      -6.50910651e-07       1.01522606e-05      -2.01244052e-05 
       2.13648348e-07       1.01563830e-05      -2.01244078e-05 
       6.48978668e-07       1.01563837e-05      -2.01202879e-05 
      -2.15580331e-07       1.01522612e-05      -2.01202853e-05 
      -6.50910652e-07       1.01522606e-05      -2.01244052e-05 
       2.13648348e-07       1.01563830e-05      -2.01244078e-05 
       6.48978668e-07       1.01563837e-05      -2.01202879e-05 
      -2.20414701e-07       1.07651553e-05      -2.13376708e-05 
      -6.65319098e-07       1.07651546e-05      -2.13418958e-05 
       2.18450142e-07       1.07693823e-05      -2.13418985e-05 
       6.63354541e-07       1.07693830e-05      -2.13376735e-05 
      -2.20414701e-07       1.07651553e-05      -2.13376708e-05 
      -6.65319098e-07       1.07651546e-05      -2.13418958e-05 
       2.18450142e-07       1.07693823e-05      -2.13418985e-05 
       6.63354541e-07       1.07693830e-05      -2.13376735e-05 
      -2.25125982e-07       1.13912028e-05      -2.25814575e-05 
      -6.79346497e-07       1.13912021e-05      -2.25857876e-05 
       2.23128410e-07       1.13955351e-05      -2.25857905e-05 
       6.77348925e-07       1.13955358e-05      -2.25814604e-05 
      -2.25125982e-07       1.13912028e-05      -2.25814575e-05 
      -6.79346497e-07       1.13912021e-05      -2.25857876e-05 
       2.23128410e-07       1.13955351e-05      -2.25857905e-05 
       6.77348925e-07       1.13955358e-05      -2.25814604e-05 
      -2.29714168e-07       1.20300446e-05      -2.38509429e-05 
      -6.92992839e-07       1.20300438e-05      -2.38553781e-05 
       2.27683159e-07       1.20344820e-05      -2.38553810e-05 
       6.90961830e-07       1.20344827e-05      -2.38509458e-05 
      -2.29714168e-07       1.20300446e-05      -2.38509429e-05 
      -6.92992839e-07       1.20300438e-05      -2.38553781e-05 
       2.27683159e-07       1.20344820e-05      -2.38553810e-05 
       6.90961830e-07       1.20344827e-05      -2.38509458e-05 
      -2.34179255e-07       1.26813212e-05      -2.51454240e-05 
      -7.06258120e-07       1.26813205e-05      -2.51499644e-05 
       2.32114391e-07       1.26858639e-05      -2.51499674e-05 
       7.04193257e-07       1.26858647e-05      -2.51454271e-05 
      -2.34179255e-07       1.26813212e-05      -2.51454240e-05 
      -7.06258120e-07       1.26813205e-05      -2.51499644e-05 
       2.32114391e-07       1.26858639e-05      -2.51499674e-05 
       7.04193257e-07       1.26858647e-05      -2.51454271e-05 
      -2.38521237e-07       1.33446736e-05      -2.64641984e-05 
      -7.19142335e-07       1.33446728e-05      -2.64688439e-05 
       2.36422115e-07       1.33493215e-05      -2.64688471e-05 
       7.17043213e-07       1.33493223e-05      -2.64642016e-05 
      -2.38521237e-07       1.33446736e-05      -2.64641984e-05 
      -7.19142335e-07       1.33446728e-05      -2.64688439e-05 
       2.36422115e-07       1.33493215e-05      -2.64688471e-05 
       7.17043213e-07       1.33493223e-05      -2.64642016e-05 
      -2.42740106e-07       1.40197425e-05      -2.78065633e-05 
      -7.31645477e-07       1.40197417e-05      -2.78113139e-05 
       2.40606335e-07       1.40244956e-05      -2.78113172e-05 
       7.29511705e-07       1.40244964e-05      -2.78065666e-05 
      -2.42740106e-07       1.40197425e-05      -2.78065633e-05 
      -7.31645477e-07       1.40197417e-05      -2.78113139e-05 
       2.40606335e-07       1.40244956e-05      -2.78113172e-05 
       7.29511705e-07       1.40244964e-05      -2.78065666e-05 
      -2.46835858e-07       1.47061686e-05      -2.91718161e-05 
      -7.43767540e-07       1.47061678e-05      -2.91766718e-05 
       2.44667058e-07       1.47110269e-05      -2.91766752e-05 
       7.41598739e-07       1.47110277e-05      -2.91718195e-05 
      -2.46835858e-07       1.47061686e-05      -2.91718161e-05 
      -7.43767540e-07       1.47061678e-05      -2.91766718e-05 
       2.44667058e-07       1.47110269e-05      -2.91766752e-05 
       7.41598739e-07       1.47110277e-05      -2.91718195e-05 
      -2.50808487e-07       1.54035927e-05      -3.05592540e-05 
      -7.55508517e-07       1.54035918e-05      -3.05642148e-05 
       2.48604292e-07       1.54085562e-05      -3.05642183e-05 
       7.53304321e-07       1.54085570e-05      -3.05592575e-05 
      -2.50808487e-07       1.54035927e-05      -3.05592540e-05 
      -7.55508517e-07       1.54035918e-05      -3.05642148e-05 