# vtk DataFile Version 2.0
./output/onsasExample_BladeCantileverBeamPitch_windVel3DDynamic 3D/onsasExample_BladeCantileverBeamPitch_windVel3DDynamic 3D_0156.vtk
ASCII
DATASET UNSTRUCTURED_GRID

POINTS 800 float
      -4.333193e-24      -7.180703e-02      -7.180703e-02 
      -2.821752e-23       7.180703e-02      -7.180703e-02 
       4.333193e-24       7.180703e-02       7.180703e-02 
       2.821752e-23      -7.180703e-02       7.180703e-02 
       2.000000e-01      -7.180702e-02      -7.180706e-02 
       2.000000e-01       7.180705e-02      -7.180706e-02 
       2.000000e-01       7.180705e-02       7.180701e-02 
       2.000000e-01      -7.180702e-02       7.180701e-02 
       2.000000e-01      -7.180702e-02      -7.180706e-02 
       2.000000e-01       7.180705e-02      -7.180706e-02 
       2.000000e-01       7.180705e-02       7.180701e-02 
       2.000000e-01      -7.180702e-02       7.180701e-02 
       4.000000e-01      -7.180698e-02      -7.180714e-02 
       3.999999e-01       7.180709e-02      -7.180714e-02 
       4.000000e-01       7.180709e-02       7.180693e-02 
       4.000001e-01      -7.180698e-02       7.180693e-02 
       4.000000e-01      -7.180698e-02      -7.180714e-02 
       3.999999e-01       7.180709e-02      -7.180714e-02 
       4.000000e-01       7.180709e-02       7.180693e-02 
       4.000001e-01      -7.180698e-02       7.180693e-02 
       6.000000e-01      -7.180691e-02      -7.180726e-02 
       5.999999e-01       7.180716e-02      -7.180726e-02 
       6.000000e-01       7.180716e-02       7.180680e-02 
       6.000001e-01      -7.180691e-02       7.180680e-02 
       6.000000e-01      -7.180691e-02      -7.180726e-02 
       5.999999e-01       7.180716e-02      -7.180726e-02 
       6.000000e-01       7.180716e-02       7.180680e-02 
       6.000001e-01      -7.180691e-02       7.180680e-02 
       8.000000e-01      -7.180682e-02      -7.180744e-02 
       7.999999e-01       7.180725e-02      -7.180744e-02 
       8.000000e-01       7.180725e-02       7.180663e-02 
       8.000001e-01      -7.180682e-02       7.180663e-02 
       8.000000e-01      -7.180682e-02      -7.180744e-02 
       7.999999e-01       7.180725e-02      -7.180744e-02 
       8.000000e-01       7.180725e-02       7.180663e-02 
       8.000001e-01      -7.180682e-02       7.180663e-02 
       1.000000e+00      -7.180670e-02      -7.180766e-02 
       9.999999e-01       7.180737e-02      -7.180766e-02 
       1.000000e+00       7.180737e-02       7.180640e-02 
       1.000000e+00      -7.180670e-02       7.180641e-02 
       1.000000e+00      -7.180670e-02      -7.180766e-02 
       9.999999e-01       7.180737e-02      -7.180766e-02 
       1.000000e+00       7.180737e-02       7.180640e-02 
       1.000000e+00      -7.180670e-02       7.180641e-02 
       1.200000e+00      -7.180655e-02      -7.180793e-02 
       1.200000e+00       7.180751e-02      -7.180793e-02 
       1.200000e+00       7.180751e-02       7.180613e-02 
       1.200000e+00      -7.180655e-02       7.180613e-02 
       1.200000e+00      -7.180655e-02      -7.180793e-02 
       1.200000e+00       7.180751e-02      -7.180793e-02 
       1.200000e+00       7.180751e-02       7.180613e-02 
       1.200000e+00      -7.180655e-02       7.180613e-02 
       1.400000e+00      -7.180638e-02      -7.180825e-02 
       1.400000e+00       7.180768e-02      -7.180825e-02 
       1.400000e+00       7.180768e-02       7.180582e-02 
       1.400000e+00      -7.180638e-02       7.180582e-02 
       1.400000e+00      -7.180638e-02      -7.180825e-02 
       1.400000e+00       7.180768e-02      -7.180825e-02 
       1.400000e+00       7.180768e-02       7.180582e-02 
       1.400000e+00      -7.180638e-02       7.180582e-02 
       1.600000e+00      -7.180619e-02      -7.180861e-02 
       1.600000e+00       7.180788e-02      -7.180861e-02 
       1.600000e+00       7.180788e-02       7.180546e-02 
       1.600000e+00      -7.180619e-02       7.180546e-02 
       1.600000e+00      -7.180619e-02      -7.180861e-02 
       1.600000e+00       7.180788e-02      -7.180861e-02 
       1.600000e+00       7.180788e-02       7.180546e-02 
       1.600000e+00      -7.180619e-02       7.180546e-02 
       1.800000e+00      -7.180597e-02      -7.180901e-02 
       1.800000e+00       7.180809e-02      -7.180902e-02 
       1.800000e+00       7.180809e-02       7.180505e-02 
       1.800000e+00      -7.180597e-02       7.180505e-02 
       1.800000e+00      -7.180597e-02      -7.180901e-02 
       1.800000e+00       7.180809e-02      -7.180902e-02 
       1.800000e+00       7.180809e-02       7.180505e-02 
       1.800000e+00      -7.180597e-02       7.180505e-02 
       2.000000e+00      -7.180573e-02      -7.180946e-02 
       2.000000e+00       7.180833e-02      -7.180946e-02 
       2.000000e+00       7.180833e-02       7.180460e-02 
       2.000000e+00      -7.180573e-02       7.180460e-02 
       2.000000e+00      -7.180573e-02      -7.180946e-02 
       2.000000e+00       7.180833e-02      -7.180946e-02 
       2.000000e+00       7.180833e-02       7.180460e-02 
       2.000000e+00      -7.180573e-02       7.180460e-02 
       2.200000e+00      -7.180547e-02      -7.180995e-02 
       2.200000e+00       7.180860e-02      -7.180996e-02 
       2.200000e+00       7.180860e-02       7.180411e-02 
       2.200000e+00      -7.180547e-02       7.180411e-02 
       2.200000e+00      -7.180547e-02      -7.180995e-02 
       2.200000e+00       7.180860e-02      -7.180996e-02 
       2.200000e+00       7.180860e-02       7.180411e-02 
       2.200000e+00      -7.180547e-02       7.180411e-02 
       2.400000e+00      -7.180519e-02      -7.181048e-02 
       2.400000e+00       7.180888e-02      -7.181049e-02 
       2.400000e+00       7.180888e-02       7.180358e-02 
       2.400000e+00      -7.180518e-02       7.180358e-02 
       2.400000e+00      -7.180519e-02      -7.181048e-02 
       2.400000e+00       7.180888e-02      -7.181049e-02 
       2.400000e+00       7.180888e-02       7.180358e-02 
       2.400000e+00      -7.180518e-02       7.180358e-02 
       2.600000e+00      -7.180488e-02      -7.181106e-02 
       2.600000e+00       7.180919e-02      -7.181106e-02 
       2.600000e+00       7.180919e-02       7.180301e-02 
       2.600000e+00      -7.180488e-02       7.180301e-02 
       2.600000e+00      -7.180488e-02      -7.181106e-02 
       2.600000e+00       7.180919e-02      -7.181106e-02 
       2.600000e+00       7.180919e-02       7.180301e-02 
       2.600000e+00      -7.180488e-02       7.180301e-02 
       2.800000e+00      -7.180455e-02      -7.181167e-02 
       2.800000e+00       7.180951e-02      -7.181167e-02 
       2.800000e+00       7.180952e-02       7.180240e-02 
       2.800000e+00      -7.180455e-02       7.180240e-02 
       2.800000e+00      -7.180455e-02      -7.181167e-02 
       2.800000e+00       7.180951e-02      -7.181167e-02 
       2.800000e+00       7.180952e-02       7.180240e-02 
       2.800000e+00      -7.180455e-02       7.180240e-02 
       3.000000e+00      -7.180421e-02      -7.181232e-02 
       3.000000e+00       7.180986e-02      -7.181232e-02 
       3.000000e+00       7.180986e-02       7.180175e-02 
       3.000000e+00      -7.180420e-02       7.180175e-02 
       3.000000e+00      -7.180421e-02      -7.181232e-02 
       3.000000e+00       7.180986e-02      -7.181232e-02 
       3.000000e+00       7.180986e-02       7.180175e-02 
       3.000000e+00      -7.180420e-02       7.180175e-02 
       3.200000e+00      -7.180384e-02      -7.181300e-02 
       3.200000e+00       7.181023e-02      -7.181301e-02 
       3.200000e+00       7.181023e-02       7.180106e-02 
       3.200000e+00      -7.180383e-02       7.180106e-02 
       3.200000e+00      -7.180384e-02      -7.181300e-02 
       3.200000e+00       7.181023e-02      -7.181301e-02 
       3.200000e+00       7.181023e-02       7.180106e-02 
       3.200000e+00      -7.180383e-02       7.180106e-02 
       3.400000e+00      -7.180345e-02      -7.181373e-02 
       3.400000e+00       7.181062e-02      -7.181373e-02 
       3.400000e+00       7.181062e-02       7.180034e-02 
       3.400000e+00      -7.180345e-02       7.180034e-02 
       3.400000e+00      -7.180345e-02      -7.181373e-02 
       3.400000e+00       7.181062e-02      -7.181373e-02 
       3.400000e+00       7.181062e-02       7.180034e-02 
       3.400000e+00      -7.180345e-02       7.180034e-02 
       3.600000e+00      -7.180304e-02      -7.181449e-02 
       3.600000e+00       7.181102e-02      -7.181449e-02 
       3.600000e+00       7.181103e-02       7.179958e-02 
       3.600000e+00      -7.180304e-02       7.179958e-02 
       3.600000e+00      -7.180304e-02      -7.181449e-02 
       3.600000e+00       7.181102e-02      -7.181449e-02 
       3.600000e+00       7.181103e-02       7.179958e-02 
       3.600000e+00      -7.180304e-02       7.179958e-02 
       3.800000e+00      -7.180262e-02      -7.181528e-02 
       3.800000e+00       7.181145e-02      -7.181528e-02 
       3.800000e+00       7.181145e-02       7.179878e-02 
       3.800000e+00      -7.180261e-02       7.179878e-02 
       3.800000e+00      -7.180262e-02      -7.181528e-02 
       3.800000e+00       7.181145e-02      -7.181528e-02 
       3.800000e+00       7.181145e-02       7.179878e-02 
       3.800000e+00      -7.180261e-02       7.179878e-02 
       4.000000e+00      -7.180217e-02      -7.181611e-02 
       4.000000e+00       7.181189e-02      -7.181611e-02 
       4.000000e+00       7.181190e-02       7.179795e-02 
       4.000000e+00      -7.180217e-02       7.179796e-02 
       4.000000e+00      -7.180217e-02      -7.181611e-02 
       4.000000e+00       7.181189e-02      -7.181611e-02 
       4.000000e+00       7.181190e-02       7.179795e-02 
       4.000000e+00      -7.180217e-02       7.179796e-02 
       4.200000e+00      -7.180171e-02      -7.181697e-02 
[...]
POINT_DATA       800 
VECTORS Displacements float
      -4.33319294e-24       0.00000000e+00       0.00000000e+00 
      -2.82175176e-23       1.38777878e-17      -1.38777878e-17 
       4.33319294e-24       0.00000000e+00       0.00000000e+00 
       2.82175176e-23      -1.38777878e-17       1.38777878e-17 
      -8.62871843e-09       1.37215603e-08      -2.57237488e-08 
      -2.83813905e-08       1.37215589e-08      -2.58764409e-08 
       8.55210855e-09       1.38742561e-08      -2.58764457e-08 
       2.83047806e-08       1.38742575e-08      -2.57237536e-08 
      -8.62871843e-09       1.37215603e-08      -2.57237488e-08 
      -2.83813905e-08       1.37215589e-08      -2.58764409e-08 
       8.55210855e-09       1.38742561e-08      -2.58764457e-08 
       2.83047806e-08       1.38742575e-08      -2.57237536e-08 
      -1.70894989e-08       5.46876359e-08      -1.02384412e-07 
      -5.62164574e-08       5.46876306e-08      -1.02689792e-07 
       1.69361198e-08       5.49930299e-08      -1.02689810e-07 
       5.60630783e-08       5.49930352e-08      -1.02384431e-07 
      -1.70894989e-08       5.46876359e-08      -1.02384412e-07 
      -5.62164574e-08       5.46876306e-08      -1.02689792e-07 
       1.69361198e-08       5.49930299e-08      -1.02689810e-07 
       5.60630783e-08       5.49930352e-08      -1.02384431e-07 
      -2.53823397e-08       1.22371279e-07      -2.28987073e-07 
      -8.35051992e-08       1.22371268e-07      -2.29445135e-07 
       2.51520353e-08       1.22829373e-07      -2.29445176e-07 
       8.32748948e-08       1.22829385e-07      -2.28987114e-07 
      -2.53823397e-08       1.22371279e-07      -2.28987073e-07 
      -8.35051992e-08       1.22371268e-07      -2.29445135e-07 
       2.51520353e-08       1.22829373e-07      -2.29445176e-07 
       8.32748948e-08       1.22829385e-07      -2.28987114e-07 
      -3.35072394e-08       2.16245543e-07      -4.04536813e-07 
      -1.10247614e-07       2.16245522e-07      -4.05147554e-07 
       3.31998566e-08       2.16856339e-07      -4.05147625e-07 
       1.09940232e-07       2.16856360e-07      -4.04536885e-07 
      -3.35072394e-08       2.16245543e-07      -4.04536813e-07 
      -1.10247614e-07       2.16245522e-07      -4.05147554e-07 
       3.31998566e-08       2.16856339e-07      -4.05147625e-07 
       1.09940232e-07       2.16856360e-07      -4.04536885e-07 
      -4.14641964e-08       3.35783478e-07      -6.28038716e-07 
      -1.36443701e-07       3.35783447e-07      -6.28802130e-07 
       4.10795853e-08       3.36546979e-07      -6.28802240e-07 
       1.36059090e-07       3.36547010e-07      -6.28038825e-07 
      -4.14641964e-08       3.35783478e-07      -6.28038716e-07 
      -1.36443701e-07       3.35783447e-07      -6.28802130e-07 
       4.10795853e-08       3.36546979e-07      -6.28802240e-07 
       1.36059090e-07       3.36547010e-07      -6.28038825e-07 
      -4.92532091e-08       4.80458139e-07      -8.98497863e-07 
      -1.62093458e-07       4.80458094e-07      -8.99413948e-07 
       4.87912228e-08       4.81374345e-07      -8.99414103e-07 
       1.61631472e-07       4.81374389e-07      -8.98498018e-07 
      -4.92532091e-08       4.80458139e-07      -8.98497863e-07 
      -1.62093458e-07       4.80458094e-07      -8.99413948e-07 
       4.87912228e-08       4.81374345e-07      -8.99414103e-07 
       1.61631472e-07       4.81374389e-07      -8.98498018e-07 
      -5.68742762e-08       6.49742576e-07      -1.21491934e-06 
      -1.87196884e-07       6.49742516e-07      -1.21598809e-06 
       5.63347711e-08       6.50811489e-07      -1.21598830e-06 
       1.86657379e-07       6.50811548e-07      -1.21491954e-06 
      -5.68742762e-08       6.49742576e-07      -1.21491934e-06 
      -1.87196884e-07       6.49742516e-07      -1.21598809e-06 
       5.63347711e-08       6.50811489e-07      -1.21598830e-06 
       1.86657379e-07       6.50811548e-07      -1.21491954e-06 
      -6.43273954e-08       8.43109842e-07      -1.57630822e-06 
      -2.11753977e-07       8.43109766e-07      -1.57752964e-06 
       6.37102311e-08       8.44331464e-07      -1.57752990e-06 
       2.11136812e-07       8.44331540e-07      -1.57630848e-06 
      -6.43273954e-08       8.43109842e-07      -1.57630822e-06 
      -2.11753977e-07       8.43109766e-07      -1.57752964e-06 
       6.37102311e-08       8.44331464e-07      -1.57752990e-06 
       2.11136812e-07       8.44331540e-07      -1.57630848e-06 
      -7.16125663e-08       1.06003299e-06      -1.98166960e-06 
      -2.35764735e-07       1.06003290e-06      -1.98304367e-06 
       7.09176047e-08       1.06140732e-06      -1.98304400e-06 
       2.35069774e-07       1.06140742e-06      -1.98166992e-06 
      -7.16125663e-08       1.06003299e-06      -1.98166960e-06 
      -2.35764735e-07       1.06003290e-06      -1.98304367e-06 
       7.09176047e-08       1.06140732e-06      -1.98304400e-06 
       2.35069774e-07       1.06140742e-06      -1.98166992e-06 
      -7.87297867e-08       1.29998507e-06      -2.43000854e-06 
      -2.59229157e-07       1.29998496e-06      -2.43153528e-06 
       7.79568934e-08       1.30151211e-06      -2.43153568e-06 
       2.58456264e-07       1.30151223e-06      -2.43000894e-06 
      -7.87297865e-08       1.29998507e-06      -2.43000854e-06 
      -2.59229157e-07       1.29998496e-06      -2.43153528e-06 
       7.79568934e-08       1.30151212e-06      -2.43153568e-06 
       2.58456264e-07       1.30151223e-06      -2.43000894e-06 
      -8.56749183e-08       1.56245670e-06      -2.92035756e-06 
      -2.82163536e-07       1.56245657e-06      -2.92202095e-06 
       8.48527155e-08       1.56412045e-06      -2.92202141e-06 
       2.81341333e-07       1.56412059e-06      -2.92035803e-06 
      -8.56749183e-08       1.56245670e-06      -2.92035756e-06 
      -2.82163536e-07       1.56245657e-06      -2.92202095e-06 
       8.48527155e-08       1.56412045e-06      -2.92202141e-06 
       2.81341333e-07       1.56412059e-06      -2.92035803e-06 
      -9.24712338e-08       1.84695980e-06      -3.45180577e-06 
      -3.04610898e-07       1.84695965e-06      -3.45360580e-06 
       9.15993703e-08       1.84876027e-06      -3.45360635e-06 
       3.03739034e-07       1.84876042e-06      -3.45180631e-06 
      -9.24712338e-08       1.84695980e-06      -3.45180577e-06 
      -3.04610898e-07       1.84695965e-06      -3.45360580e-06 
       9.15993703e-08       1.84876027e-06      -3.45360635e-06 
       3.03739034e-07       1.84876042e-06      -3.45180631e-06 
      -9.91187297e-08       2.15302339e-06      -4.02346719e-06 
      -3.26571238e-07       2.15302321e-06      -4.02540388e-06 
       9.81968609e-08       2.15496056e-06      -4.02540450e-06 
       3.25649370e-07       2.15496074e-06      -4.02346782e-06 
      -9.91187297e-08       2.15302339e-06      -4.02346719e-06 
      -3.26571238e-07       2.15302321e-06      -4.02540388e-06 
       9.81968609e-08       2.15496056e-06      -4.02540450e-06 
       3.25649370e-07       2.15496074e-06      -4.02346782e-06 
      -1.05617402e-07       2.48017647e-06      -4.63445588e-06 
      -3.48044555e-07       2.48017627e-06      -4.63652921e-06 
       1.04645192e-07       2.48225036e-06      -4.63652992e-06 
       3.47072344e-07       2.48225056e-06      -4.63445660e-06 
      -1.05617402e-07       2.48017647e-06      -4.63445588e-06 
      -3.48044555e-07       2.48017627e-06      -4.63652921e-06 
       1.04645192e-07       2.48225036e-06      -4.63652992e-06 
       3.47072344e-07       2.48225056e-06      -4.63445660e-06 
      -1.11967247e-07       2.82794807e-06      -5.28388587e-06 
      -3.69030842e-07       2.82794784e-06      -5.28609584e-06 
       1.10944366e-07       2.83015867e-06      -5.28609664e-06 
       3.68007961e-07       2.83015890e-06      -5.28388667e-06 
      -1.11967247e-07       2.82794807e-06      -5.28388587e-06 
      -3.69030842e-07       2.82794784e-06      -5.28609584e-06 
       1.10944366e-07       2.83015867e-06      -5.28609664e-06 
       3.68007961e-07       2.83015890e-06      -5.28388667e-06 
      -1.18168261e-07       3.19586719e-06      -5.97087119e-06 
      -3.89530098e-07       3.19586694e-06      -5.97321780e-06 
       1.17094388e-07       3.19821450e-06      -5.97321869e-06 
       3.88456224e-07       3.19821476e-06      -5.97087208e-06 
      -1.18168261e-07       3.19586719e-06      -5.97087119e-06 
      -3.89530098e-07       3.19586694e-06      -5.97321780e-06 
       1.17094388e-07       3.19821450e-06      -5.97321869e-06 
       3.88456224e-07       3.19821476e-06      -5.97087208e-06 
      -1.24220441e-07       3.58346286e-06      -6.69452587e-06 
      -4.09542317e-07       3.58346257e-06      -6.69700912e-06 
       1.23095261e-07       3.58594688e-06      -6.69701011e-06 
       4.08417138e-07       3.58594716e-06      -6.69452686e-06 
      -1.24220441e-07       3.58346286e-06      -6.69452587e-06 
      -4.09542317e-07       3.58346257e-06      -6.69700912e-06 
       1.23095261e-07       3.58594688e-06      -6.69701011e-06 
       4.08417138e-07       3.58594716e-06      -6.69452686e-06 
      -1.30123781e-07       3.99026407e-06      -7.45396396e-06 
      -4.29067497e-07       3.99026376e-06      -7.45658385e-06 
       1.28946990e-07       3.99288481e-06      -7.45658493e-06 
       4.27890706e-07       3.99288512e-06      -7.45396505e-06 
      -1.30123781e-07       3.99026407e-06      -7.45396396e-06 
      -4.29067497e-07       3.99026376e-06      -7.45658385e-06 
       1.28946990e-07       3.99288481e-06      -7.45658493e-06 
       4.27890706e-07       3.99288512e-06      -7.45396505e-06 
      -1.35878278e-07       4.41579986e-06      -8.24829949e-06 
      -4.48105633e-07       4.41579952e-06      -8.25105602e-06 
       1.34649577e-07       4.41855731e-06      -8.25105720e-06 
       4.46876931e-07       4.41855765e-06      -8.24830067e-06 
      -1.35878278e-07       4.41579986e-06      -8.24829949e-06 
      -4.48105633e-07       4.41579952e-06      -8.25105602e-06 
       1.34649577e-07       4.41855731e-06      -8.25105720e-06 
       4.46876931e-07       4.41855765e-06      -8.24830067e-06 
      -1.41483930e-07       4.85959923e-06      -9.07664649e-06 
      -4.66656721e-07       4.85959886e-06      -9.07953966e-06 
       1.40203026e-07       4.86249340e-06      -9.07954094e-06 
       4.65375816e-07       4.86249376e-06      -9.07664778e-06 
      -1.41483930e-07       4.85959923e-06      -9.07664649e-06 
      -4.66656721e-07       4.85959886e-06      -9.07953966e-06 
       1.40203026e-07       4.86249340e-06      -9.07954094e-06 
       4.65375817e-07       4.86249376e-06      -9.07664778e-06 
      -1.46940206e-07       5.32120857e-06      -9.93814539e-06 
      -4.84740324e-07       5.32120817e-06      -9.94115917e-06 
       1.45626865e-07       5.32422344e-06      -9.94116056e-06 
       4.83426984e-07       5.32422384e-06      -9.93814678e-06 
      -1.46940206e-07       5.32120857e-06      -9.93814539e-06 
      -4.84740324e-07       5.32120817e-06      -9.94115917e-06 
       1.45626865e-07       5.32422344e-06      -9.94116056e-06 
       4.83426984e-07       5.32422384e-06      -9.93814678e-06 
      -1.52265896e-07       5.80019521e-06      -1.08319913e-05 
      -5.02394928e-07       5.80019478e-06      -1.08351257e-05 
       1.50919703e-07       5.80333078e-06      -1.08351272e-05 
       5.01048737e-07       5.80333120e-06      -1.08319928e-05 
      -1.52265896e-07       5.80019521e-06      -1.08319913e-05 
      -5.02394928e-07       5.80019478e-06      -1.08351257e-05 
       1.50919703e-07       5.80333078e-06      -1.08351272e-05 
       5.01048737e-07       5.80333120e-06      -1.08319928e-05 
      -1.57460994e-07       6.29614357e-06      -1.17574044e-05 
      -5.19620528e-07       6.29614311e-06      -1.17606594e-05 
       1.56081547e-07       6.29939984e-06      -1.17606610e-05 
       5.18241081e-07       6.29940029e-06      -1.17574060e-05 
      -1.57460994e-07       6.29614357e-06      -1.17574044e-05 
      -5.19620528e-07       6.29614311e-06      -1.17606594e-05 
       1.56081547e-07       6.29939984e-06      -1.17606610e-05 
       5.18241081e-07       6.29940029e-06      -1.17574060e-05 
      -1.62525498e-07       6.80863807e-06      -1.27136048e-05 
      -5.36417120e-07       6.80863758e-06      -1.27169804e-05 
       1.61112398e-07       6.81201503e-06      -1.27169821e-05 
       5.35004020e-07       6.81201552e-06      -1.27136065e-05 
      -1.62525498e-07       6.80863807e-06      -1.27136048e-05 
      -5.36417120e-07       6.80863758e-06      -1.27169804e-05 
       1.61112398e-07       6.81201503e-06      -1.27169821e-05 
       5.35004020e-07       6.81201552e-06      -1.27136065e-05 
      -1.67459401e-07       7.33726313e-06      -1.36998126e-05 
      -5.52784698e-07       7.33726261e-06      -1.37033089e-05 
       1.66012263e-07       7.34076080e-06      -1.37033107e-05 
       5.51337560e-07       7.34076132e-06      -1.36998144e-05 
      -1.67459401e-07       7.33726313e-06      -1.36998126e-05 
      -5.52784698e-07       7.33726261e-06      -1.37033089e-05 
       1.66012263e-07       7.34076080e-06      -1.37033107e-05 
       5.51337560e-07       7.34076132e-06      -1.36998144e-05 
      -1.72262699e-07       7.88160318e-06      -1.47152480e-05 
      -5.68723258e-07       7.88160264e-06      -1.47188649e-05 
       1.70781147e-07       7.88522155e-06      -1.47188668e-05 
       5.67241705e-07       7.88522210e-06      -1.47152499e-05 
      -1.72262699e-07       7.88160318e-06      -1.47152480e-05 
      -5.68723258e-07       7.88160264e-06      -1.47188649e-05 
       1.70781147e-07       7.88522155e-06      -1.47188668e-05 
       5.67241705e-07       7.88522210e-06      -1.47152499e-05 
      -1.76935387e-07       8.44124265e-06      -1.57591311e-05 
      -5.84232795e-07       8.44124207e-06      -1.57628685e-05 
       1.75419054e-07       8.44498172e-06      -1.57628706e-05 
       5.82716461e-07       8.44498230e-06      -1.57591331e-05 
      -1.76935387e-07       8.44124265e-06      -1.57591311e-05 
      -5.84232795e-07       8.44124207e-06      -1.57628685e-05 
       1.75419054e-07       8.44498172e-06      -1.57628706e-05 
       5.82716461e-07       8.44498230e-06      -1.57591331e-05 
      -1.81477459e-07       9.01576595e-06      -1.68306819e-05 
      -5.99313300e-07       9.01576534e-06      -1.68345401e-05 
       1.79925991e-07       9.01962572e-06      -1.68345422e-05 
       5.97761834e-07       9.01962633e-06      -1.68306841e-05 
      -1.81477459e-07       9.01576595e-06      -1.68306819e-05 
      -5.99313300e-07       9.01576534e-06      -1.68345401e-05 
       1.79925991e-07       9.01962572e-06      -1.68345422e-05 
       5.97761834e-07       9.01962633e-06      -1.68306841e-05 
      -1.85888910e-07       9.60475751e-06      -1.79291208e-05 
      -6.13964774e-07       9.60475687e-06      -1.79330995e-05 
       1.84301961e-07       9.60873798e-06      -1.79331017e-05 
       6.12377826e-07       9.60873862e-06      -1.79291230e-05 
      -1.85888910e-07       9.60475751e-06      -1.79291208e-05 
      -6.13964774e-07       9.60475687e-06      -1.79330995e-05 
       1.84301961e-07       9.60873798e-06      -1.79331017e-05 
       6.12377826e-07       9.60873862e-06      -1.79291230e-05 
      -1.90169737e-07       1.02078018e-05      -1.90536677e-05 
      -6.28187209e-07       1.02078011e-05      -1.90577671e-05 
       1.88546971e-07       1.02119029e-05      -1.90577694e-05 
       6.26564443e-07       1.02119036e-05      -1.90536701e-05 
      -1.90169737e-07       1.02078018e-05      -1.90536677e-05 
      -6.28187210e-07       1.02078011e-05      -1.90577671e-05 
       1.88546971e-07       1.02119029e-05      -1.90577694e-05 
       6.26564444e-07       1.02119036e-05      -1.90536701e-05 
      -1.94322389e-07       1.08245004e-05      -2.02035687e-05 
      -6.42002943e-07       1.08244997e-05      -2.02077726e-05 
       1.92676703e-07       1.08287062e-05      -2.02077750e-05 
       6.40357256e-07       1.08287069e-05      -2.02035711e-05 
      -1.94322389e-07       1.08245004e-05      -2.02035687e-05 
      -6.42002943e-07       1.08244997e-05      -2.02077726e-05 
       1.92676703e-07       1.08287062e-05      -2.02077750e-05 
       6.40357256e-07       1.08287069e-05      -2.02035711e-05 
      -1.98362231e-07       1.14544758e-05      -2.13781232e-05 
      -6.55447018e-07       1.14544750e-05      -2.13824317e-05 
       1.96693224e-07       1.14587863e-05      -2.13824343e-05 
       6.53778013e-07       1.14587870e-05      -2.13781258e-05 
      -1.98362231e-07       1.14544758e-05      -2.13781232e-05 
      -6.55447018e-07       1.14544750e-05      -2.13824317e-05 
       1.96693224e-07       1.14587863e-05      -2.13824343e-05 
       6.53778013e-07       1.14587870e-05      -2.13781258e-05 
      -2.02289252e-07       1.20973674e-05      -2.25766562e-05 
      -6.68519430e-07       1.20973667e-05      -2.25810693e-05 
       2.00596543e-07       1.21017826e-05      -2.25810719e-05 
       6.66826720e-07       1.21017834e-05      -2.25766588e-05 
      -2.02289252e-07       1.20973674e-05      -2.25766562e-05 
      -6.68519430e-07       1.20973667e-05      -2.25810693e-05 
       2.00596543e-07       1.21017826e-05      -2.25810719e-05 
       6.66826720e-07       1.21017834e-05      -2.25766588e-05 
      -2.06103453e-07       1.27528150e-05      -2.37984922e-05 
      -6.81220174e-07       1.27528142e-05      -2.38030099e-05 
       2.04386660e-07       1.27573348e-05      -2.38030127e-05 
       6.79503382e-07       1.27573356e-05      -2.37984950e-05 
      -2.06103453e-07       1.27528150e-05      -2.37984922e-05 
      -6.81220174e-07       1.27528142e-05      -2.38030099e-05 
       2.04386660e-07       1.27573348e-05      -2.38030127e-05 
       6.79503382e-07       1.27573356e-05      -2.37984950e-05 
      -2.09804824e-07       1.34204578e-05      -2.50429562e-05 
      -6.93549243e-07       1.34204570e-05      -2.50475785e-05 
       2.08063584e-07       1.34250823e-05      -2.50475813e-05 
       6.91808003e-07       1.34250831e-05      -2.50429591e-05 
      -2.09804824e-07       1.34204578e-05      -2.50429562e-05 
      -6.93549243e-07       1.34204570e-05      -2.50475785e-05 
       2.08063584e-07       1.34250823e-05      -2.50475813e-05 
       6.91808003e-07       1.34250831e-05      -2.50429591e-05 
      -2.13393363e-07       1.40999356e-05      -2.63093729e-05 
      -7.05506633e-07       1.40999347e-05      -2.63140997e-05 
       2.11627319e-07       1.41046647e-05      -2.63141027e-05 
       7.03740589e-07       1.41046656e-05      -2.63093758e-05 
      -2.13393363e-07       1.40999356e-05      -2.63093729e-05 
      -7.05506633e-07       1.40999347e-05      -2.63140997e-05 
       2.11627319e-07       1.41046647e-05      -2.63141027e-05 
       7.03740589e-07       1.41046656e-05      -2.63093758e-05 
      -2.16869061e-07       1.47908877e-05      -2.75970670e-05 
      -7.17092338e-07       1.47908868e-05      -2.76018984e-05 
       2.15077872e-07       1.47957215e-05      -2.76019014e-05 
       7.15301147e-07       1.47957224e-05      -2.75970700e-05 
      -2.16869061e-07       1.47908877e-05      -2.75970670e-05 
      -7.17092338e-07       1.47908868e-05      -2.76018984e-05 
       2.15077872e-07       1.47957215e-05      -2.76019014e-05 
       7.15301147e-07       1.47957224e-05      -2.75970700e-05 
      -2.20231914e-07       1.54929538e-05      -2.89053632e-05 
      -7.28306349e-07       1.54929529e-05      -2.89102993e-05 
       2.18415248e-07       1.54978923e-05      -2.89103024e-05 
       7.26489684e-07       1.54978932e-05      -2.89053664e-05 
      -2.20231914e-07       1.54929538e-05      -2.89053632e-05 
      -7.28306349e-07       1.54929529e-05      -2.89102993e-05 