# vtk DataFile Version 2.0
./output/onsasExample_BladeCantileverBeamPitch_windVel3DDynamic 3D/onsasExample_BladeCantileverBeamPitch_windVel3DDynamic 3D_0196.vtk
ASCII
DATASET UNSTRUCTURED_GRID

POINTS 800 float
      -1.937329e-25      -7.180703e-02      -7.180703e-02 
       1.781133e-23       7.180703e-02      -7.180703e-02 
       1.937329e-25       7.180703e-02       7.180703e-02 
      -1.781133e-23      -7.180703e-02       7.180703e-02 
       2.000000e-01      -7.180702e-02      -7.180706e-02 
       2.000000e-01       7.180705e-02      -7.180706e-02 
       2.000000e-01       7.180705e-02       7.180700e-02 
       2.000000e-01      -7.180702e-02       7.180700e-02 
       2.000000e-01      -7.180702e-02      -7.180706e-02 
       2.000000e-01       7.180705e-02      -7.180706e-02 
       2.000000e-01       7.180705e-02       7.180700e-02 
       2.000000e-01      -7.180702e-02       7.180700e-02 
       4.000000e-01      -7.180698e-02      -7.180715e-02 
       3.999999e-01       7.180709e-02      -7.180715e-02 
       4.000000e-01       7.180709e-02       7.180692e-02 
       4.000001e-01      -7.180698e-02       7.180692e-02 
       4.000000e-01      -7.180698e-02      -7.180715e-02 
       3.999999e-01       7.180709e-02      -7.180715e-02 
       4.000000e-01       7.180709e-02       7.180692e-02 
       4.000001e-01      -7.180698e-02       7.180692e-02 
       6.000000e-01      -7.180691e-02      -7.180729e-02 
       5.999999e-01       7.180715e-02      -7.180729e-02 
       6.000000e-01       7.180715e-02       7.180678e-02 
       6.000001e-01      -7.180691e-02       7.180678e-02 
       6.000000e-01      -7.180691e-02      -7.180729e-02 
       5.999999e-01       7.180715e-02      -7.180729e-02 
       6.000000e-01       7.180715e-02       7.180678e-02 
       6.000001e-01      -7.180691e-02       7.180678e-02 
       8.000000e-01      -7.180682e-02      -7.180748e-02 
       7.999999e-01       7.180725e-02      -7.180748e-02 
       8.000000e-01       7.180725e-02       7.180658e-02 
       8.000001e-01      -7.180682e-02       7.180658e-02 
       8.000000e-01      -7.180682e-02      -7.180748e-02 
       7.999999e-01       7.180725e-02      -7.180748e-02 
       8.000000e-01       7.180725e-02       7.180658e-02 
       8.000001e-01      -7.180682e-02       7.180658e-02 
       9.999999e-01      -7.180670e-02      -7.180773e-02 
       9.999999e-01       7.180736e-02      -7.180773e-02 
       1.000000e+00       7.180737e-02       7.180634e-02 
       1.000000e+00      -7.180670e-02       7.180634e-02 
       9.999999e-01      -7.180670e-02      -7.180773e-02 
       9.999999e-01       7.180736e-02      -7.180773e-02 
       1.000000e+00       7.180737e-02       7.180634e-02 
       1.000000e+00      -7.180670e-02       7.180634e-02 
       1.200000e+00      -7.180656e-02      -7.180803e-02 
       1.200000e+00       7.180751e-02      -7.180803e-02 
       1.200000e+00       7.180751e-02       7.180603e-02 
       1.200000e+00      -7.180656e-02       7.180604e-02 
       1.200000e+00      -7.180656e-02      -7.180803e-02 
       1.200000e+00       7.180751e-02      -7.180803e-02 
       1.200000e+00       7.180751e-02       7.180603e-02 
       1.200000e+00      -7.180656e-02       7.180604e-02 
       1.400000e+00      -7.180639e-02      -7.180838e-02 
       1.400000e+00       7.180767e-02      -7.180838e-02 
       1.400000e+00       7.180768e-02       7.180568e-02 
       1.400000e+00      -7.180639e-02       7.180568e-02 
       1.400000e+00      -7.180639e-02      -7.180838e-02 
       1.400000e+00       7.180767e-02      -7.180838e-02 
       1.400000e+00       7.180768e-02       7.180568e-02 
       1.400000e+00      -7.180639e-02       7.180568e-02 
       1.600000e+00      -7.180620e-02      -7.180878e-02 
       1.600000e+00       7.180787e-02      -7.180878e-02 
       1.600000e+00       7.180787e-02       7.180528e-02 
       1.600000e+00      -7.180620e-02       7.180528e-02 
       1.600000e+00      -7.180620e-02      -7.180878e-02 
       1.600000e+00       7.180787e-02      -7.180878e-02 
       1.600000e+00       7.180787e-02       7.180528e-02 
       1.600000e+00      -7.180620e-02       7.180528e-02 
       1.800000e+00      -7.180599e-02      -7.180923e-02 
       1.800000e+00       7.180808e-02      -7.180924e-02 
       1.800000e+00       7.180808e-02       7.180483e-02 
       1.800000e+00      -7.180599e-02       7.180483e-02 
       1.800000e+00      -7.180599e-02      -7.180923e-02 
       1.800000e+00       7.180808e-02      -7.180924e-02 
       1.800000e+00       7.180808e-02       7.180483e-02 
       1.800000e+00      -7.180599e-02       7.180483e-02 
       2.000000e+00      -7.180575e-02      -7.180973e-02 
       2.000000e+00       7.180832e-02      -7.180974e-02 
       2.000000e+00       7.180832e-02       7.180433e-02 
       2.000000e+00      -7.180575e-02       7.180433e-02 
       2.000000e+00      -7.180575e-02      -7.180973e-02 
       2.000000e+00       7.180832e-02      -7.180974e-02 
       2.000000e+00       7.180832e-02       7.180433e-02 
       2.000000e+00      -7.180575e-02       7.180433e-02 
       2.200000e+00      -7.180549e-02      -7.181028e-02 
       2.200000e+00       7.180857e-02      -7.181028e-02 
       2.200000e+00       7.180858e-02       7.180379e-02 
       2.200000e+00      -7.180549e-02       7.180379e-02 
       2.200000e+00      -7.180549e-02      -7.181028e-02 
       2.200000e+00       7.180857e-02      -7.181028e-02 
       2.200000e+00       7.180858e-02       7.180379e-02 
       2.200000e+00      -7.180549e-02       7.180379e-02 
       2.400000e+00      -7.180521e-02      -7.181087e-02 
       2.400000e+00       7.180886e-02      -7.181087e-02 
       2.400000e+00       7.180886e-02       7.180319e-02 
       2.400000e+00      -7.180521e-02       7.180319e-02 
       2.400000e+00      -7.180521e-02      -7.181087e-02 
       2.400000e+00       7.180886e-02      -7.181087e-02 
       2.400000e+00       7.180886e-02       7.180319e-02 
       2.400000e+00      -7.180521e-02       7.180319e-02 
       2.600000e+00      -7.180491e-02      -7.181151e-02 
       2.600000e+00       7.180916e-02      -7.181151e-02 
       2.600000e+00       7.180916e-02       7.180256e-02 
       2.600000e+00      -7.180491e-02       7.180256e-02 
       2.600000e+00      -7.180491e-02      -7.181151e-02 
       2.600000e+00       7.180916e-02      -7.181151e-02 
       2.600000e+00       7.180916e-02       7.180256e-02 
       2.600000e+00      -7.180491e-02       7.180256e-02 
       2.800000e+00      -7.180459e-02      -7.181219e-02 
       2.800000e+00       7.180948e-02      -7.181219e-02 
       2.800000e+00       7.180948e-02       7.180187e-02 
       2.800000e+00      -7.180458e-02       7.180188e-02 
       2.800000e+00      -7.180459e-02      -7.181219e-02 
       2.800000e+00       7.180948e-02      -7.181219e-02 
       2.800000e+00       7.180948e-02       7.180187e-02 
       2.800000e+00      -7.180458e-02       7.180188e-02 
       3.000000e+00      -7.180424e-02      -7.181291e-02 
       3.000000e+00       7.180982e-02      -7.181292e-02 
       3.000000e+00       7.180982e-02       7.180115e-02 
       3.000000e+00      -7.180424e-02       7.180115e-02 
       3.000000e+00      -7.180424e-02      -7.181291e-02 
       3.000000e+00       7.180982e-02      -7.181292e-02 
       3.000000e+00       7.180982e-02       7.180115e-02 
       3.000000e+00      -7.180424e-02       7.180115e-02 
       3.200000e+00      -7.180388e-02      -7.181368e-02 
       3.200000e+00       7.181019e-02      -7.181368e-02 
       3.200000e+00       7.181019e-02       7.180038e-02 
       3.200000e+00      -7.180388e-02       7.180039e-02 
       3.200000e+00      -7.180388e-02      -7.181368e-02 
       3.200000e+00       7.181019e-02      -7.181368e-02 
       3.200000e+00       7.181019e-02       7.180038e-02 
       3.200000e+00      -7.180388e-02       7.180039e-02 
       3.400000e+00      -7.180350e-02      -7.181449e-02 
       3.400000e+00       7.181057e-02      -7.181449e-02 
       3.400000e+00       7.181057e-02       7.179957e-02 
       3.400000e+00      -7.180350e-02       7.179958e-02 
       3.400000e+00      -7.180350e-02      -7.181449e-02 
       3.400000e+00       7.181057e-02      -7.181449e-02 
       3.400000e+00       7.181057e-02       7.179957e-02 
       3.400000e+00      -7.180350e-02       7.179958e-02 
       3.600000e+00      -7.180310e-02      -7.181534e-02 
       3.600000e+00       7.181097e-02      -7.181534e-02 
       3.600000e+00       7.181097e-02       7.179873e-02 
       3.600000e+00      -7.180310e-02       7.179873e-02 
       3.600000e+00      -7.180310e-02      -7.181534e-02 
       3.600000e+00       7.181097e-02      -7.181534e-02 
       3.600000e+00       7.181097e-02       7.179873e-02 
       3.600000e+00      -7.180310e-02       7.179873e-02 
       3.800000e+00      -7.180268e-02      -7.181623e-02 
       3.800000e+00       7.181139e-02      -7.181623e-02 
       3.800000e+00       7.181139e-02       7.179784e-02 
       3.800000e+00      -7.180268e-02       7.179784e-02 
       3.800000e+00      -7.180268e-02      -7.181623e-02 
       3.800000e+00       7.181139e-02      -7.181623e-02 
       3.800000e+00       7.181139e-02       7.179784e-02 
       3.800000e+00      -7.180268e-02       7.179784e-02 
       4.000000e+00      -7.180224e-02      -7.181715e-02 
       3.999999e+00       7.181182e-02      -7.181715e-02 
       4.000000e+00       7.181183e-02       7.179691e-02 
       4.000000e+00      -7.180224e-02       7.179691e-02 
       4.000000e+00      -7.180224e-02      -7.181715e-02 
       3.999999e+00       7.181182e-02      -7.181715e-02 
       4.000000e+00       7.181183e-02       7.179691e-02 
       4.000000e+00      -7.180224e-02       7.179691e-02 
       4.200000e+00      -7.180179e-02      -7.181811e-02 
[...]
POINT_DATA       800 
VECTORS Displacements float
      -1.93732940e-25       0.00000000e+00      -1.38777878e-17 
       1.78113294e-23       0.00000000e+00      -1.38777878e-17 
       1.93732940e-25       0.00000000e+00       1.38777878e-17 
      -1.78113294e-23       0.00000000e+00       1.38777878e-17 
      -1.07583852e-08       1.35481073e-08      -2.85155477e-08 
      -3.02625597e-08       1.35481060e-08      -2.86689315e-08 
       1.06738250e-08       1.37014954e-08      -2.86689373e-08 
       3.01779995e-08       1.37014966e-08      -2.85155536e-08 
      -1.07583852e-08       1.35481073e-08      -2.85155477e-08 
      -3.02625597e-08       1.35481060e-08      -2.86689315e-08 
       1.06738250e-08       1.37014954e-08      -2.86689373e-08 
       3.01779995e-08       1.37014966e-08      -2.85155536e-08 
      -2.13274382e-08       5.39951193e-08      -1.13513152e-07 
      -5.99580513e-08       5.39951141e-08      -1.13819914e-07 
       2.11581308e-08       5.43018980e-08      -1.13819937e-07 
       5.97887439e-08       5.43019032e-08      -1.13513175e-07 
      -2.13274382e-08       5.39951193e-08      -1.13513152e-07 
      -5.99580513e-08       5.39951141e-08      -1.13819914e-07 
       2.11581308e-08       5.43018980e-08      -1.13819937e-07 
       5.97887439e-08       5.43019032e-08      -1.13513175e-07 
      -3.17071573e-08       1.20814993e-07      -2.53939174e-07 
      -8.90864733e-08       1.20814981e-07      -2.54399309e-07 
       3.14529190e-08       1.21275165e-07      -2.54399360e-07 
       8.88322350e-08       1.21275177e-07      -2.53939224e-07 
      -3.17071573e-08       1.20814993e-07      -2.53939174e-07 
      -8.90864733e-08       1.20814981e-07      -2.54399309e-07 
       3.14529190e-08       1.21275165e-07      -2.54399360e-07 
       8.88322350e-08       1.21275177e-07      -2.53939224e-07 
      -4.18975409e-08       2.13481685e-07      -4.48739974e-07 
      -1.17647824e-07       2.13481665e-07      -4.49353478e-07 
       4.15581917e-08       2.14095253e-07      -4.49353566e-07 
       1.17308475e-07       2.14095273e-07      -4.48740062e-07 
      -4.18975409e-08       2.13481685e-07      -4.48739974e-07 
      -1.17647824e-07       2.13481665e-07      -4.49353478e-07 
       4.15581917e-08       2.14095253e-07      -4.49353566e-07 
       1.17308475e-07       2.14095273e-07      -4.48740062e-07 
      -5.18985869e-08       3.31469153e-07      -6.96861912e-07 
      -1.45642101e-07       3.31469123e-07      -6.97628781e-07 
       5.14739502e-08       3.32236120e-07      -6.97628916e-07 
       1.45217464e-07       3.32236150e-07      -6.96862047e-07 
      -5.18985869e-08       3.31469153e-07      -6.96861912e-07 
      -1.45642101e-07       3.31469123e-07      -6.97628781e-07 
       5.14739502e-08       3.32236120e-07      -6.97628916e-07 
       1.45217464e-07       3.32236150e-07      -6.96862047e-07 
      -6.17102938e-08       4.74251354e-07      -9.97251350e-07 
      -1.73069303e-07       4.74251311e-07      -9.98171579e-07 
       6.12001962e-08       4.75171721e-07      -9.98171770e-07 
       1.72559206e-07       4.75171764e-07      -9.97251542e-07 
      -6.17102938e-08       4.74251354e-07      -9.97251350e-07 
      -1.73069303e-07       4.74251311e-07      -9.98171579e-07 
       6.12001962e-08       4.75171721e-07      -9.98171770e-07 
       1.72559206e-07       4.75171764e-07      -9.97251542e-07 
      -7.13326596e-08       6.41302245e-07      -1.34885465e-06 
      -1.99929429e-07       6.41302188e-07      -1.34992823e-06 
       7.07369325e-08       6.42376015e-07      -1.34992849e-06 
       1.99333702e-07       6.42376072e-07      -1.34885490e-06 
      -7.13326596e-08       6.41302245e-07      -1.34885465e-06 
      -1.99929429e-07       6.41302188e-07      -1.34992823e-06 
       7.07369325e-08       6.42376015e-07      -1.34992849e-06 
       1.99333702e-07       6.42376072e-07      -1.34885490e-06 
      -8.07656826e-08       8.32095783e-07      -1.75061817e-06 
      -2.26222475e-07       8.32095710e-07      -1.75184511e-06 
       8.00841597e-08       8.33322957e-07      -1.75184543e-06 
       2.25540953e-07       8.33323031e-07      -1.75061850e-06 
      -8.07656826e-08       8.32095783e-07      -1.75061817e-06 
      -2.26222475e-07       8.32095710e-07      -1.75184511e-06 
       8.00841597e-08       8.33322957e-07      -1.75184543e-06 
       2.25540953e-07       8.33323031e-07      -1.75061850e-06 
      -9.00093615e-08       1.04610593e-06      -2.20148827e-06 
      -2.51948442e-07       1.04610583e-06      -2.20286856e-06 
       8.92418801e-08       1.04748651e-06      -2.20286896e-06 
       2.51180961e-07       1.04748660e-06      -2.20148868e-06 
      -9.00093615e-08       1.04610593e-06      -2.20148827e-06 
      -2.51948442e-07       1.04610583e-06      -2.20286856e-06 
       8.92418801e-08       1.04748651e-06      -2.20286896e-06 
       2.51180961e-07       1.04748660e-06      -2.20148868e-06 
      -9.90636939e-08       1.28280663e-06      -2.70041131e-06 
      -2.77107326e-07       1.28280652e-06      -2.70194495e-06 
       9.82100952e-08       1.28434062e-06      -2.70194544e-06 
       2.76253728e-07       1.28434073e-06      -2.70041180e-06 
      -9.90636939e-08       1.28280663e-06      -2.70041131e-06 
      -2.77107326e-07       1.28280652e-06      -2.70194495e-06 
       9.82100952e-08       1.28434062e-06      -2.70194544e-06 
       2.76253728e-07       1.28434073e-06      -2.70041180e-06 
      -1.07922706e-07       1.54168955e-06      -3.24635967e-06 
      -3.01713845e-07       1.54168942e-06      -3.24803062e-06 
       1.07012284e-07       1.54336093e-06      -3.24803120e-06 
       3.00803423e-07       1.54336106e-06      -3.24636025e-06 
      -1.07922706e-07       1.54168955e-06      -3.24635967e-06 
      -3.01713845e-07       1.54168942e-06      -3.24803062e-06 
       1.07012284e-07       1.54336093e-06      -3.24803120e-06 
       3.00803423e-07       1.54336106e-06      -3.24636025e-06 
      -1.16609245e-07       1.82226805e-06      -3.83835848e-06 
      -3.25810775e-07       1.82226790e-06      -3.84016675e-06 
       1.15641583e-07       1.82407682e-06      -3.84016743e-06 
       3.24843113e-07       1.82407697e-06      -3.83835915e-06 
      -1.16609245e-07       1.82226805e-06      -3.83835848e-06 
      -3.25810775e-07       1.82226790e-06      -3.84016675e-06 
       1.15641583e-07       1.82407682e-06      -3.84016743e-06 
       3.24843113e-07       1.82407697e-06      -3.83835915e-06 
      -1.25123307e-07       2.12407265e-06      -4.47545731e-06 
      -3.49398114e-07       2.12407247e-06      -4.47740291e-06 
       1.24097995e-07       2.12601881e-06      -4.47740369e-06 
       3.48372801e-07       2.12601898e-06      -4.47545809e-06 
      -1.25123307e-07       2.12407265e-06      -4.47545731e-06 
      -3.49398114e-07       2.12407247e-06      -4.47740291e-06 
       1.24097995e-07       2.12601881e-06      -4.47740369e-06 
       3.48372801e-07       2.12601898e-06      -4.47545809e-06 
      -1.33464887e-07       2.44663387e-06      -5.15670573e-06 
      -3.72475855e-07       2.44663367e-06      -5.15878865e-06 
       1.32381524e-07       2.44871742e-06      -5.15878953e-06 
       3.71392492e-07       2.44871762e-06      -5.15670662e-06 
      -1.33464887e-07       2.44663387e-06      -5.15670573e-06 
      -3.72475855e-07       2.44663367e-06      -5.15878865e-06 
       1.32381524e-07       2.44871742e-06      -5.15878953e-06 
       3.71392492e-07       2.44871762e-06      -5.15670662e-06 
      -1.41633981e-07       2.78948224e-06      -5.88115331e-06 
      -3.95043995e-07       2.78948202e-06      -5.88337354e-06 
       1.40492176e-07       2.79170319e-06      -5.88337454e-06 
       3.93902190e-07       2.79170342e-06      -5.88115431e-06 
      -1.41633981e-07       2.78948224e-06      -5.88115331e-06 
      -3.95043995e-07       2.78948202e-06      -5.88337354e-06 
       1.40492176e-07       2.79170319e-06      -5.88337454e-06 
       3.93902190e-07       2.79170342e-06      -5.88115431e-06 
      -1.49630584e-07       3.15214830e-06      -6.64784961e-06 
      -4.17102530e-07       3.15214805e-06      -6.65020715e-06 
       1.48429954e-07       3.15450665e-06      -6.65020826e-06 
       4.15901900e-07       3.15450689e-06      -6.64785072e-06 
      -1.49630584e-07       3.15214830e-06      -6.64784961e-06 
      -4.17102530e-07       3.15214805e-06      -6.65020715e-06 
       1.48429954e-07       3.15450665e-06      -6.65020826e-06 
       4.15901900e-07       3.15450689e-06      -6.64785072e-06 
      -1.57454692e-07       3.53416256e-06      -7.45584419e-06 
      -4.38651455e-07       3.53416228e-06      -7.45833904e-06 
       1.56194863e-07       3.53665830e-06      -7.45834027e-06 
       4.37391626e-07       3.53665858e-06      -7.45584542e-06 
      -1.57454692e-07       3.53416256e-06      -7.45584419e-06 
      -4.38651455e-07       3.53416228e-06      -7.45833904e-06 
       1.56194863e-07       3.53665830e-06      -7.45834027e-06 
       4.37391626e-07       3.53665858e-06      -7.45584542e-06 
      -1.65106302e-07       3.93505555e-06      -8.30418662e-06 
      -4.59690766e-07       3.93505525e-06      -8.30681878e-06 
       1.63786907e-07       3.93768870e-06      -8.30682014e-06 
       4.58371372e-07       3.93768900e-06      -8.30418797e-06 
      -1.65106302e-07       3.93505555e-06      -8.30418662e-06 
      -4.59690766e-07       3.93505525e-06      -8.30681878e-06 
       1.63786907e-07       3.93768870e-06      -8.30682014e-06 
       4.58371372e-07       3.93768900e-06      -8.30418797e-06 
      -1.72585406e-07       4.35435781e-06      -9.19192647e-06 
      -4.80220458e-07       4.35435748e-06      -9.19469594e-06 
       1.71206091e-07       4.35712835e-06      -9.19469742e-06 
       4.78841143e-07       4.35712868e-06      -9.19192794e-06 
      -1.72585406e-07       4.35435781e-06      -9.19192647e-06 
      -4.80220458e-07       4.35435748e-06      -9.19469594e-06 
       1.71206091e-07       4.35712835e-06      -9.19469742e-06 
       4.78841143e-07       4.35712868e-06      -9.19192794e-06 
      -1.79892004e-07       4.79159985e-06      -1.01181133e-05 
      -5.00240528e-07       4.79159949e-06      -1.01210201e-05 
       1.78452418e-07       4.79450779e-06      -1.01210217e-05 
       4.98800942e-07       4.79450815e-06      -1.01181149e-05 
      -1.79892004e-07       4.79159985e-06      -1.01181133e-05 
      -5.00240528e-07       4.79159949e-06      -1.01210201e-05 
       1.78452418e-07       4.79450779e-06      -1.01210217e-05 
       4.98800942e-07       4.79450815e-06      -1.01181149e-05 
      -1.87023833e-07       5.24632969e-06      -1.10818216e-05 
      -5.19769008e-07       5.24632931e-06      -1.10848497e-05 
       1.85544439e-07       5.24935898e-06      -1.10848514e-05 
       5.18289615e-07       5.24935937e-06      -1.10818234e-05 
      -1.87023833e-07       5.24632969e-06      -1.10818216e-05 
      -5.19769008e-07       5.24632931e-06      -1.10848497e-05 
       1.85544439e-07       5.24935898e-06      -1.10848514e-05 
       5.18289615e-07       5.24935937e-06      -1.10818234e-05 
      -1.93999841e-07       5.71811663e-06      -1.20821782e-05 
      -5.38844755e-07       5.71811621e-06      -1.20853275e-05 
       1.92480141e-07       5.72126727e-06      -1.20853294e-05 
       5.37325056e-07       5.72126769e-06      -1.20821800e-05 
      -1.93999841e-07       5.71811663e-06      -1.20821782e-05 
      -5.38844755e-07       5.71811621e-06      -1.20853275e-05 
       1.92480141e-07       5.72126727e-06      -1.20853294e-05 
       5.37325056e-07       5.72126769e-06      -1.20821800e-05 
      -2.00820022e-07       6.20654718e-06      -1.31183347e-05 
      -5.57467764e-07       6.20654673e-06      -1.31216053e-05 
       1.99259529e-07       6.20981917e-06      -1.31216073e-05 
       5.55907270e-07       6.20981961e-06      -1.31183367e-05 
      -2.00820022e-07       6.20654718e-06      -1.31183347e-05 
      -5.57467764e-07       6.20654673e-06      -1.31216053e-05 
       1.99259529e-07       6.20981917e-06      -1.31216073e-05 
       5.55907270e-07       6.20981961e-06      -1.31183367e-05 
      -2.07484371e-07       6.71120785e-06      -1.41894431e-05 
      -5.75638030e-07       6.71120737e-06      -1.41928349e-05 
       2.05882607e-07       6.71460120e-06      -1.41928370e-05 
       5.74036265e-07       6.71460167e-06      -1.41894452e-05 
      -2.07484371e-07       6.71120785e-06      -1.41894431e-05 
      -5.75638030e-07       6.71120737e-06      -1.41928349e-05 
       2.05882607e-07       6.71460120e-06      -1.41928370e-05 
       5.74036265e-07       6.71460167e-06      -1.41894452e-05 
      -2.13992882e-07       7.23168516e-06      -1.52946551e-05 
      -5.93355545e-07       7.23168466e-06      -1.52981682e-05 
       2.12349382e-07       7.23519986e-06      -1.52981705e-05 
       5.91712045e-07       7.23520036e-06      -1.52946574e-05 
      -2.13992882e-07       7.23168516e-06      -1.52946551e-05 
      -5.93355545e-07       7.23168466e-06      -1.52981682e-05 
       2.12349382e-07       7.23519986e-06      -1.52981705e-05 
       5.91712045e-07       7.23520036e-06      -1.52946574e-05 
      -2.20345550e-07       7.76756562e-06      -1.64331226e-05 
      -6.10620305e-07       7.76756509e-06      -1.64367569e-05 
       2.18659860e-07       7.77120167e-06      -1.64367593e-05 
       6.08934616e-07       7.77120221e-06      -1.64331250e-05 
      -2.20345550e-07       7.76756562e-06      -1.64331226e-05 
      -6.10620305e-07       7.76756509e-06      -1.64367569e-05 
       2.18659860e-07       7.77120167e-06      -1.64367593e-05 
       6.08934616e-07       7.77120221e-06      -1.64331250e-05 
      -2.26542367e-07       8.31843575e-06      -1.76039974e-05 
      -6.27432303e-07       8.31843519e-06      -1.76077530e-05 
       2.24814046e-07       8.32219316e-06      -1.76077555e-05 
       6.25703983e-07       8.32219372e-06      -1.76039999e-05 
      -2.26542367e-07       8.31843575e-06      -1.76039974e-05 
      -6.27432303e-07       8.31843519e-06      -1.76077530e-05 
       2.24814046e-07       8.32219316e-06      -1.76077555e-05 
       6.25703983e-07       8.32219372e-06      -1.76039999e-05 
      -2.32583328e-07       8.88388206e-06      -1.88064313e-05 
      -6.43791534e-07       8.88388147e-06      -1.88103081e-05 
       2.30811949e-07       8.88776083e-06      -1.88103108e-05 
       6.42020156e-07       8.88776141e-06      -1.88064339e-05 
      -2.32583328e-07       8.88388206e-06      -1.88064313e-05 
      -6.43791534e-07       8.88388147e-06      -1.88103081e-05 
       2.30811949e-07       8.88776083e-06      -1.88103108e-05 
       6.42020156e-07       8.88776141e-06      -1.88064339e-05 
      -2.38468428e-07       9.46349107e-06      -2.00395761e-05 
      -6.59697992e-07       9.46349046e-06      -2.00435742e-05 
       2.36653571e-07       9.46749119e-06      -2.00435770e-05 
       6.57883136e-07       9.46749181e-06      -2.00395789e-05 
      -2.38468428e-07       9.46349107e-06      -2.00395761e-05 
      -6.59697992e-07       9.46349046e-06      -2.00435742e-05 
       2.36653571e-07       9.46749119e-06      -2.00435770e-05 
       6.57883136e-07       9.46749181e-06      -2.00395789e-05 
      -2.44197661e-07       1.00568493e-05      -2.13025837e-05 
      -6.75151671e-07       1.00568486e-05      -2.13067030e-05 
       2.42338920e-07       1.00609708e-05      -2.13067059e-05 
       6.73292930e-07       1.00609714e-05      -2.13025866e-05 
      -2.44197661e-07       1.00568493e-05      -2.13025837e-05 
      -6.75151672e-07       1.00568486e-05      -2.13067030e-05 
       2.42338919e-07       1.00609708e-05      -2.13067059e-05 
       6.73292930e-07       1.00609714e-05      -2.13025866e-05 
      -2.49772092e-07       1.06635606e-05      -2.25946305e-05 
      -6.90173723e-07       1.06635600e-05      -2.25988550e-05 
       2.47883086e-07       1.06677874e-05      -2.25988581e-05 
       6.88284716e-07       1.06677880e-05      -2.25946335e-05 
      -2.49772092e-07       1.06635606e-05      -2.25946305e-05 
      -6.90173723e-07       1.06635600e-05      -2.25988550e-05 
       2.47883086e-07       1.06677874e-05      -2.25988581e-05 
       6.88284716e-07       1.06677880e-05      -2.25946335e-05 
      -2.55207814e-07       1.12832500e-05      -2.39149458e-05 
      -7.04800158e-07       1.12832493e-05      -2.39192755e-05 
       2.53288060e-07       1.12875820e-05      -2.39192787e-05 
       7.02880404e-07       1.12875827e-05      -2.39149490e-05 
      -2.55207814e-07       1.12832500e-05      -2.39149458e-05 
      -7.04800158e-07       1.12832493e-05      -2.39192755e-05 
       2.53288060e-07       1.12875820e-05      -2.39192787e-05 
       7.02880404e-07       1.12875827e-05      -2.39149490e-05 
      -2.60504822e-07       1.19155597e-05      -2.52627849e-05 
      -7.19030971e-07       1.19155590e-05      -2.52672198e-05 
       2.58553850e-07       1.19199970e-05      -2.52672232e-05 
       7.17079999e-07       1.19199977e-05      -2.52627883e-05 
      -2.60504822e-07       1.19155597e-05      -2.52627849e-05 
      -7.19030971e-07       1.19155590e-05      -2.52672198e-05 
       2.58553850e-07       1.19199970e-05      -2.52672232e-05 
       7.17079999e-07       1.19199977e-05      -2.52627883e-05 
      -2.65663111e-07       1.25601319e-05      -2.66374031e-05 
      -7.32866157e-07       1.25601312e-05      -2.66419431e-05 
       2.63680461e-07       1.25646745e-05      -2.66419466e-05 
       7.30883507e-07       1.25646752e-05      -2.66374065e-05 
      -2.65663111e-07       1.25601319e-05      -2.66374031e-05 
      -7.32866157e-07       1.25601312e-05      -2.66419431e-05 
       2.63680461e-07       1.25646745e-05      -2.66419466e-05 
       7.30883507e-07       1.25646752e-05      -2.66374065e-05 
      -2.70682673e-07       1.32166089e-05      -2.80380554e-05 
      -7.46305710e-07       1.32166081e-05      -2.80427006e-05 
       2.68667899e-07       1.32212567e-05      -2.80427042e-05 
       7.44290935e-07       1.32212575e-05      -2.80380590e-05 
      -2.70682673e-07       1.32166089e-05      -2.80380554e-05 
      -7.46305710e-07       1.32166081e-05      -2.80427006e-05 
       2.68667899e-07       1.32212567e-05      -2.80427042e-05 
       7.44290935e-07       1.32212575e-05      -2.80380590e-05 
      -2.75563502e-07       1.38846328e-05      -2.94639972e-05 
      -7.59349621e-07       1.38846320e-05      -2.94687476e-05 
       2.73516171e-07       1.38893859e-05      -2.94687513e-05 
       7.57302288e-07       1.38893867e-05      -2.94640009e-05 
      -2.75563502e-07       1.38846328e-05      -2.94639972e-05 
      -7.59349621e-07       1.38846320e-05      -2.94687476e-05 
       2.73516171e-07       1.38893859e-05      -2.94687513e-05 
       7.57302288e-07       1.38893867e-05      -2.94640009e-05 
      -2.80305591e-07       1.45638459e-05      -3.09144836e-05 
      -7.71997884e-07       1.45638451e-05      -3.09193392e-05 
       2.78225282e-07       1.45687043e-05      -3.09193430e-05 
       7.69917576e-07       1.45687051e-05      -3.09144874e-05 
      -2.80305591e-07       1.45638459e-05      -3.09144836e-05 
      -7.71997884e-07       1.45638451e-05      -3.09193392e-05 
       2.78225282e-07       1.45687043e-05      -3.09193430e-05 
       7.69917576e-07       1.45687051e-05      -3.09144874e-05 
      -2.84908934e-07       1.52538904e-05      -3.23887698e-05 
      -7.84250495e-07       1.52538896e-05      -3.23937306e-05 
       2.82795241e-07       1.52588541e-05      -3.23937346e-05 
       7.82136803e-07       1.52588549e-05      -3.23887738e-05 
      -2.84908934e-07       1.52538904e-05      -3.23887698e-05 
      -7.84250495e-07       1.52538896e-05      -3.23937306e-05 