# vtk DataFile Version 2.0
./output/onsasExample_BladeCantileverBeamPitch_windVel3DDynamic 3D/onsasExample_BladeCantileverBeamPitch_windVel3DDynamic 3D_0118.vtk
ASCII
DATASET UNSTRUCTURED_GRID

POINTS 800 float
       6.504872e-24      -7.180703e-02      -7.180703e-02 
      -2.649369e-23       7.180703e-02      -7.180703e-02 
      -6.504872e-24       7.180703e-02       7.180703e-02 
       2.649369e-23      -7.180703e-02       7.180703e-02 
       2.000000e-01      -7.180702e-02      -7.180706e-02 
       2.000000e-01       7.180705e-02      -7.180706e-02 
       2.000000e-01       7.180705e-02       7.180701e-02 
       2.000000e-01      -7.180702e-02       7.180701e-02 
       2.000000e-01      -7.180702e-02      -7.180706e-02 
       2.000000e-01       7.180705e-02      -7.180706e-02 
       2.000000e-01       7.180705e-02       7.180701e-02 
       2.000000e-01      -7.180702e-02       7.180701e-02 
       4.000000e-01      -7.180698e-02      -7.180713e-02 
       3.999999e-01       7.180709e-02      -7.180713e-02 
       4.000000e-01       7.180709e-02       7.180694e-02 
       4.000001e-01      -7.180698e-02       7.180694e-02 
       4.000000e-01      -7.180698e-02      -7.180713e-02 
       3.999999e-01       7.180709e-02      -7.180713e-02 
       4.000000e-01       7.180709e-02       7.180694e-02 
       4.000001e-01      -7.180698e-02       7.180694e-02 
       6.000000e-01      -7.180691e-02      -7.180725e-02 
       5.999999e-01       7.180716e-02      -7.180725e-02 
       6.000000e-01       7.180716e-02       7.180681e-02 
       6.000001e-01      -7.180691e-02       7.180681e-02 
       6.000000e-01      -7.180691e-02      -7.180725e-02 
       5.999999e-01       7.180716e-02      -7.180725e-02 
       6.000000e-01       7.180716e-02       7.180681e-02 
       6.000001e-01      -7.180691e-02       7.180681e-02 
       8.000000e-01      -7.180682e-02      -7.180742e-02 
       7.999999e-01       7.180725e-02      -7.180742e-02 
       8.000000e-01       7.180725e-02       7.180665e-02 
       8.000001e-01      -7.180681e-02       7.180665e-02 
       8.000000e-01      -7.180682e-02      -7.180742e-02 
       7.999999e-01       7.180725e-02      -7.180742e-02 
       8.000000e-01       7.180725e-02       7.180665e-02 
       8.000001e-01      -7.180681e-02       7.180665e-02 
       1.000000e+00      -7.180670e-02      -7.180763e-02 
       9.999999e-01       7.180737e-02      -7.180763e-02 
       1.000000e+00       7.180737e-02       7.180643e-02 
       1.000000e+00      -7.180669e-02       7.180643e-02 
       1.000000e+00      -7.180670e-02      -7.180763e-02 
       9.999999e-01       7.180737e-02      -7.180763e-02 
       1.000000e+00       7.180737e-02       7.180643e-02 
       1.000000e+00      -7.180669e-02       7.180643e-02 
       1.200000e+00      -7.180655e-02      -7.180789e-02 
       1.200000e+00       7.180752e-02      -7.180789e-02 
       1.200000e+00       7.180752e-02       7.180618e-02 
       1.200000e+00      -7.180655e-02       7.180618e-02 
       1.200000e+00      -7.180655e-02      -7.180789e-02 
       1.200000e+00       7.180752e-02      -7.180789e-02 
       1.200000e+00       7.180752e-02       7.180618e-02 
       1.200000e+00      -7.180655e-02       7.180618e-02 
       1.400000e+00      -7.180638e-02      -7.180819e-02 
       1.400000e+00       7.180769e-02      -7.180819e-02 
       1.400000e+00       7.180769e-02       7.180587e-02 
       1.400000e+00      -7.180638e-02       7.180587e-02 
       1.400000e+00      -7.180638e-02      -7.180819e-02 
       1.400000e+00       7.180769e-02      -7.180819e-02 
       1.400000e+00       7.180769e-02       7.180587e-02 
       1.400000e+00      -7.180638e-02       7.180587e-02 
       1.600000e+00      -7.180618e-02      -7.180854e-02 
       1.600000e+00       7.180788e-02      -7.180854e-02 
       1.600000e+00       7.180788e-02       7.180553e-02 
       1.600000e+00      -7.180618e-02       7.180553e-02 
       1.600000e+00      -7.180618e-02      -7.180854e-02 
       1.600000e+00       7.180788e-02      -7.180854e-02 
       1.600000e+00       7.180788e-02       7.180553e-02 
       1.600000e+00      -7.180618e-02       7.180553e-02 
       1.800000e+00      -7.180597e-02      -7.180892e-02 
       1.800000e+00       7.180810e-02      -7.180892e-02 
       1.800000e+00       7.180810e-02       7.180514e-02 
       1.800000e+00      -7.180596e-02       7.180514e-02 
       1.800000e+00      -7.180597e-02      -7.180892e-02 
       1.800000e+00       7.180810e-02      -7.180892e-02 
       1.800000e+00       7.180810e-02       7.180514e-02 
       1.800000e+00      -7.180596e-02       7.180514e-02 
       2.000000e+00      -7.180572e-02      -7.180935e-02 
       2.000000e+00       7.180834e-02      -7.180935e-02 
       2.000000e+00       7.180834e-02       7.180472e-02 
       2.000000e+00      -7.180572e-02       7.180472e-02 
       2.000000e+00      -7.180572e-02      -7.180935e-02 
       2.000000e+00       7.180834e-02      -7.180935e-02 
       2.000000e+00       7.180834e-02       7.180472e-02 
       2.000000e+00      -7.180572e-02       7.180472e-02 
       2.200000e+00      -7.180546e-02      -7.180982e-02 
       2.200000e+00       7.180861e-02      -7.180982e-02 
       2.200000e+00       7.180861e-02       7.180425e-02 
       2.200000e+00      -7.180546e-02       7.180425e-02 
       2.200000e+00      -7.180546e-02      -7.180982e-02 
       2.200000e+00       7.180861e-02      -7.180982e-02 
       2.200000e+00       7.180861e-02       7.180425e-02 
       2.200000e+00      -7.180546e-02       7.180425e-02 
       2.400000e+00      -7.180517e-02      -7.181032e-02 
       2.400000e+00       7.180889e-02      -7.181032e-02 
       2.400000e+00       7.180889e-02       7.180374e-02 
       2.400000e+00      -7.180517e-02       7.180374e-02 
       2.400000e+00      -7.180517e-02      -7.181032e-02 
       2.400000e+00       7.180889e-02      -7.181032e-02 
       2.400000e+00       7.180889e-02       7.180374e-02 
       2.400000e+00      -7.180517e-02       7.180374e-02 
       2.600000e+00      -7.180487e-02      -7.181087e-02 
       2.600000e+00       7.180920e-02      -7.181087e-02 
       2.600000e+00       7.180920e-02       7.180320e-02 
       2.600000e+00      -7.180486e-02       7.180320e-02 
       2.600000e+00      -7.180487e-02      -7.181087e-02 
       2.600000e+00       7.180920e-02      -7.181087e-02 
       2.600000e+00       7.180920e-02       7.180320e-02 
       2.600000e+00      -7.180486e-02       7.180320e-02 
       2.800000e+00      -7.180454e-02      -7.181145e-02 
       2.800000e+00       7.180953e-02      -7.181145e-02 
       2.800000e+00       7.180953e-02       7.180262e-02 
       2.800000e+00      -7.180453e-02       7.180262e-02 
       2.800000e+00      -7.180454e-02      -7.181145e-02 
       2.800000e+00       7.180953e-02      -7.181145e-02 
       2.800000e+00       7.180953e-02       7.180262e-02 
       2.800000e+00      -7.180453e-02       7.180262e-02 
       3.000000e+00      -7.180419e-02      -7.181207e-02 
       3.000000e+00       7.180988e-02      -7.181207e-02 
       3.000000e+00       7.180988e-02       7.180200e-02 
       3.000000e+00      -7.180418e-02       7.180200e-02 
       3.000000e+00      -7.180419e-02      -7.181207e-02 
       3.000000e+00       7.180988e-02      -7.181207e-02 
       3.000000e+00       7.180988e-02       7.180200e-02 
       3.000000e+00      -7.180418e-02       7.180200e-02 
       3.200000e+00      -7.180382e-02      -7.181272e-02 
       3.200000e+00       7.181025e-02      -7.181272e-02 
       3.200000e+00       7.181025e-02       7.180134e-02 
       3.200000e+00      -7.180381e-02       7.180135e-02 
       3.200000e+00      -7.180382e-02      -7.181272e-02 
       3.200000e+00       7.181025e-02      -7.181272e-02 
       3.200000e+00       7.181025e-02       7.180134e-02 
       3.200000e+00      -7.180381e-02       7.180135e-02 
       3.400000e+00      -7.180343e-02      -7.181341e-02 
       3.400000e+00       7.181064e-02      -7.181341e-02 
       3.400000e+00       7.181064e-02       7.180066e-02 
       3.400000e+00      -7.180342e-02       7.180066e-02 
       3.400000e+00      -7.180343e-02      -7.181341e-02 
       3.400000e+00       7.181064e-02      -7.181341e-02 
       3.400000e+00       7.181064e-02       7.180066e-02 
       3.400000e+00      -7.180342e-02       7.180066e-02 
       3.600000e+00      -7.180302e-02      -7.181413e-02 
       3.600000e+00       7.181105e-02      -7.181413e-02 
       3.600000e+00       7.181105e-02       7.179993e-02 
       3.600000e+00      -7.180301e-02       7.179994e-02 
       3.600000e+00      -7.180302e-02      -7.181413e-02 
       3.600000e+00       7.181105e-02      -7.181413e-02 
       3.600000e+00       7.181105e-02       7.179993e-02 
       3.600000e+00      -7.180301e-02       7.179994e-02 
       3.800000e+00      -7.180259e-02      -7.181489e-02 
       3.800000e+00       7.181148e-02      -7.181489e-02 
       3.800000e+00       7.181148e-02       7.179918e-02 
       3.800000e+00      -7.180258e-02       7.179918e-02 
       3.800000e+00      -7.180259e-02      -7.181489e-02 
       3.800000e+00       7.181148e-02      -7.181489e-02 
       3.800000e+00       7.181148e-02       7.179918e-02 
       3.800000e+00      -7.180258e-02       7.179918e-02 
       4.000000e+00      -7.180214e-02      -7.181567e-02 
       4.000000e+00       7.181193e-02      -7.181568e-02 
       4.000000e+00       7.181193e-02       7.179839e-02 
       4.000000e+00      -7.180214e-02       7.179839e-02 
       4.000000e+00      -7.180214e-02      -7.181567e-02 
       4.000000e+00       7.181193e-02      -7.181568e-02 
       4.000000e+00       7.181193e-02       7.179839e-02 
       4.000000e+00      -7.180214e-02       7.179839e-02 
       4.200000e+00      -7.180168e-02      -7.181649e-02 
[...]
POINT_DATA       800 
VECTORS Displacements float
       6.50487164e-24       1.38777878e-17       0.00000000e+00 
      -2.64936950e-23      -1.38777878e-17       0.00000000e+00 
      -6.50487164e-24      -1.38777878e-17       0.00000000e+00 
       2.64936950e-23       1.38777878e-17       0.00000000e+00 
      -7.72649394e-09       1.38069687e-08      -2.45508380e-08 
      -2.76009590e-08       1.38069673e-08      -2.47023954e-08 
       7.65028435e-09       1.39585296e-08      -2.47023998e-08 
       2.75247495e-08       1.39585310e-08      -2.45508424e-08 
      -7.72649394e-09       1.38069687e-08      -2.45508380e-08 
      -2.76009590e-08       1.38069673e-08      -2.47023954e-08 
       7.65028435e-09       1.39585296e-08      -2.47023998e-08 
       2.75247495e-08       1.39585310e-08      -2.45508424e-08 
      -1.52942691e-08       5.50278535e-08      -9.77084814e-08 
      -5.46645105e-08       5.50278480e-08      -9.80115915e-08 
       1.51417014e-08       5.53309772e-08      -9.80116085e-08 
       5.45119428e-08       5.53309827e-08      -9.77084984e-08 
      -1.52942691e-08       5.50278535e-08      -9.77084814e-08 
      -5.46645105e-08       5.50278480e-08      -9.80115915e-08 
       1.51417014e-08       5.53309772e-08      -9.80116085e-08 
       5.45119428e-08       5.53309827e-08      -9.77084984e-08 
      -2.27033241e-08       1.23135284e-07      -2.18503283e-07 
      -8.11906531e-08       1.23135272e-07      -2.18957941e-07 
       2.24742526e-08       1.23589973e-07      -2.18957979e-07 
       8.09615816e-08       1.23589985e-07      -2.18503320e-07 
      -2.27033241e-08       1.23135284e-07      -2.18503283e-07 
      -8.11906531e-08       1.23135272e-07      -2.18957941e-07 
       2.24742526e-08       1.23589973e-07      -2.18957979e-07 
       8.09615816e-08       1.23589985e-07      -2.18503320e-07 
      -2.99536571e-08       2.17601891e-07      -3.85965596e-07 
      -1.07179385e-07       2.17601870e-07      -3.86571798e-07 
       2.96479394e-08       2.18208146e-07      -3.86571864e-07 
       1.06873667e-07       2.18208167e-07      -3.85965661e-07 
      -2.99536571e-08       2.17601891e-07      -3.85965596e-07 
      -1.07179385e-07       2.17601870e-07      -3.86571798e-07 
       2.96479394e-08       2.18208146e-07      -3.86571864e-07 
       1.06873667e-07       2.18208167e-07      -3.85965661e-07 
      -3.70452671e-08       3.37900304e-07      -5.99125773e-07 
      -1.32630705e-07       3.37900272e-07      -5.99883516e-07 
       3.66627633e-08       3.38658128e-07      -5.99883616e-07 
       1.32248201e-07       3.38658160e-07      -5.99125873e-07 
      -3.70452671e-08       3.37900304e-07      -5.99125773e-07 
      -1.32630705e-07       3.37900272e-07      -5.99883516e-07 
       3.66627633e-08       3.38658128e-07      -5.99883616e-07 
       1.32248201e-07       3.38658160e-07      -5.99125873e-07 
      -4.39781525e-08       4.83503153e-07      -8.57014167e-07 
      -1.57544612e-07       4.83503108e-07      -8.57923447e-07 
       4.35187253e-08       4.84412547e-07      -8.57923588e-07 
       1.57085185e-07       4.84412592e-07      -8.57014308e-07 
      -4.39781525e-08       4.83503153e-07      -8.57014167e-07 
      -1.57544612e-07       4.83503108e-07      -8.57923447e-07 
       4.35187253e-08       4.84412547e-07      -8.57923588e-07 
       1.57085185e-07       4.84412592e-07      -8.57014308e-07 
      -5.07523115e-08       6.53883069e-07      -1.15866113e-06 
      -1.81921104e-07       6.53883009e-07      -1.15972194e-06 
       5.02158282e-08       6.54944034e-07      -1.15972213e-06 
       1.81384620e-07       6.54944093e-07      -1.15866132e-06 
      -5.07523115e-08       6.53883069e-07      -1.15866113e-06 
      -1.81921104e-07       6.53883009e-07      -1.15972194e-06 
       5.02158282e-08       6.54944034e-07      -1.15972213e-06 
       1.81384620e-07       6.54944093e-07      -1.15866132e-06 
      -5.73677430e-08       8.48512680e-07      -1.50309702e-06 
      -2.05760179e-07       8.48512604e-07      -1.50430936e-06 
       5.67540721e-08       8.49725218e-07      -1.50430960e-06 
       2.05146508e-07       8.49725294e-07      -1.50309726e-06 
      -5.73677430e-08       8.48512680e-07      -1.50309702e-06 
      -2.05760179e-07       8.48512604e-07      -1.50430936e-06 
       5.67540721e-08       8.49725218e-07      -1.50430960e-06 
       2.05146508e-07       8.49725294e-07      -1.50309726e-06 
      -6.38244453e-08       1.06686462e-06      -1.88935218e-06 
      -2.29061836e-07       1.06686452e-06      -1.89071605e-06 
       6.31334591e-08       1.06822873e-06      -1.89071635e-06 
       2.28370850e-07       1.06822882e-06      -1.88935248e-06 
      -6.38244453e-08       1.06686462e-06      -1.88935218e-06 
      -2.29061836e-07       1.06686452e-06      -1.89071605e-06 
       6.31334591e-08       1.06822873e-06      -1.89071635e-06 
       2.28370850e-07       1.06822882e-06      -1.88935248e-06 
      -7.01224172e-08       1.30841151e-06      -2.31645698e-06 
      -2.51826075e-07       1.30841140e-06      -2.31797237e-06 
       6.93539906e-08       1.30992720e-06      -2.31797273e-06 
       2.51057648e-07       1.30992731e-06      -2.31645733e-06 
      -7.01224174e-08       1.30841151e-06      -2.31645698e-06 
      -2.51826075e-07       1.30841140e-06      -2.31797237e-06 
       6.93539901e-08       1.30992720e-06      -2.31797273e-06 
       2.51057648e-07       1.30992731e-06      -2.31645733e-06 
      -7.62582477e-08       1.57264344e-06      -2.78346969e-06 
      -2.74069723e-07       1.57264331e-06      -2.78512062e-06 
       7.54408211e-08       1.57429472e-06      -2.78512105e-06 
       2.73252296e-07       1.57429486e-06      -2.78347011e-06 
      -7.62582477e-08       1.57264344e-06      -2.78346969e-06 
      -2.74069723e-07       1.57264331e-06      -2.78512062e-06 
       7.54408211e-08       1.57429472e-06      -2.78512105e-06 
       2.73252296e-07       1.57429486e-06      -2.78347011e-06 
      -8.22555104e-08       1.85907157e-06      -3.28950694e-06 
      -2.95836037e-07       1.85907142e-06      -3.29129341e-06 
       8.13887593e-08       1.86085845e-06      -3.29129391e-06 
       2.94969285e-07       1.86085861e-06      -3.28950743e-06 
      -8.22555104e-08       1.85907157e-06      -3.28950694e-06 
      -2.95836037e-07       1.85907142e-06      -3.29129341e-06 
       8.13887593e-08       1.86085845e-06      -3.29129391e-06 
       2.94969285e-07       1.86085861e-06      -3.28950743e-06 
      -8.81142039e-08       2.16722413e-06      -3.83371056e-06 
      -3.17125014e-07       2.16722395e-06      -3.83563257e-06 
       8.71978076e-08       2.16914661e-06      -3.83563314e-06 
       3.16208618e-07       2.16914679e-06      -3.83371113e-06 
      -8.81142039e-08       2.16722413e-06      -3.83371056e-06 
      -3.17125014e-07       2.16722395e-06      -3.83563257e-06 
       8.71978076e-08       2.16914661e-06      -3.83563314e-06 
       3.16208618e-07       2.16914679e-06      -3.83371113e-06 
      -9.38343230e-08       2.49662935e-06      -4.41522238e-06 
      -3.37936650e-07       2.49662914e-06      -4.41727993e-06 
       9.28679702e-08       2.49868742e-06      -4.41728057e-06 
       3.36970297e-07       2.49868763e-06      -4.41522303e-06 
      -9.38343230e-08       2.49662935e-06      -4.41522238e-06 
      -3.37936650e-07       2.49662914e-06      -4.41727993e-06 
       9.28679702e-08       2.49868742e-06      -4.41728057e-06 
       3.36970297e-07       2.49868763e-06      -4.41522303e-06 
      -9.94158649e-08       2.84681544e-06      -5.03318423e-06 
      -3.58270942e-07       2.84681520e-06      -5.03537731e-06 
       9.83992501e-08       2.84900911e-06      -5.03537804e-06 
       3.57254327e-07       2.84900934e-06      -5.03318496e-06 
      -9.94158649e-08       2.84681544e-06      -5.03318423e-06 
      -3.58270942e-07       2.84681520e-06      -5.03537731e-06 
       9.83992501e-08       2.84900911e-06      -5.03537804e-06 
       3.57254327e-07       2.84900934e-06      -5.03318496e-06 
      -1.04858827e-07       3.21731063e-06      -5.68673795e-06 
      -3.78127886e-07       3.21731037e-06      -5.68906656e-06 
       1.03791651e-07       3.21963990e-06      -5.68906737e-06 
       3.77060711e-07       3.21964016e-06      -5.68673875e-06 
      -1.04858827e-07       3.21731063e-06      -5.68673795e-06 
      -3.78127886e-07       3.21731037e-06      -5.68906656e-06 
       1.03791651e-07       3.21963990e-06      -5.68906737e-06 
       3.77060711e-07       3.21964016e-06      -5.68673875e-06 
      -1.10163203e-07       3.60764315e-06      -6.37502535e-06 
      -3.97507478e-07       3.60764286e-06      -6.37748949e-06 
       1.09045178e-07       3.61010802e-06      -6.37749038e-06 
       3.96389452e-07       3.61010831e-06      -6.37502624e-06 
      -1.10163203e-07       3.60764315e-06      -6.37502535e-06 
      -3.97507478e-07       3.60764286e-06      -6.37748949e-06 
       1.09045178e-07       3.61010802e-06      -6.37749038e-06 
       3.96389452e-07       3.61010831e-06      -6.37502624e-06 
      -1.15328991e-07       4.01734123e-06      -7.09718827e-06 
      -4.16409714e-07       4.01734092e-06      -7.09978794e-06 
       1.14159832e-07       4.01994170e-06      -7.09978892e-06 
       4.15240555e-07       4.01994202e-06      -7.09718925e-06 
      -1.15328991e-07       4.01734123e-06      -7.09718827e-06 
      -4.16409714e-07       4.01734092e-06      -7.09978794e-06 
       1.14159832e-07       4.01994170e-06      -7.09978892e-06 
       4.15240555e-07       4.01994202e-06      -7.09718925e-06 
      -1.20356189e-07       4.44593309e-06      -7.85236854e-06 
      -4.34834592e-07       4.44593275e-06      -7.85510374e-06 
       1.19135619e-07       4.44866916e-06      -7.85510481e-06 
       4.33614023e-07       4.44866951e-06      -7.85236960e-06 
      -1.20356189e-07       4.44593309e-06      -7.85236854e-06 
      -4.34834592e-07       4.44593275e-06      -7.85510374e-06 
       1.19135619e-07       4.44866916e-06      -7.85510481e-06 
       4.33614023e-07       4.44866951e-06      -7.85236960e-06 
      -1.25244791e-07       4.89294696e-06      -8.63970798e-06 
      -4.52782109e-07       4.89294658e-06      -8.64257871e-06 
       1.23972541e-07       4.89581863e-06      -8.64257987e-06 
       4.51509858e-07       4.89581900e-06      -8.63970914e-06 
      -1.25244791e-07       4.89294696e-06      -8.63970798e-06 
      -4.52782109e-07       4.89294658e-06      -8.64257871e-06 
       1.23972540e-07       4.89581863e-06      -8.64257987e-06 
       4.51509858e-07       4.89581900e-06      -8.63970914e-06 
      -1.29994977e-07       5.35792835e-06      -9.45837545e-06 
      -4.70272411e-07       5.35792795e-06      -9.46136574e-06 
       1.28690685e-07       5.36091966e-06      -9.46136699e-06 
       4.68968119e-07       5.36092006e-06      -9.45837670e-06 
      -1.29994977e-07       5.35792835e-06      -9.45837545e-06 
      -4.70272411e-07       5.35792795e-06      -9.46136574e-06 
       1.28690685e-07       5.36091966e-06      -9.46136699e-06 
       4.68968119e-07       5.36092006e-06      -9.45837670e-06 
      -1.34625568e-07       5.84044357e-06      -1.03075957e-05 
      -4.87343931e-07       5.84044314e-06      -1.03107056e-05 
       1.33288852e-07       5.84355452e-06      -1.03107069e-05 
       4.86007214e-07       5.84355495e-06      -1.03075971e-05 
      -1.34625568e-07       5.84044357e-06      -1.03075957e-05 
      -4.87343931e-07       5.84044314e-06      -1.03107056e-05 
       1.33288852e-07       5.84355452e-06      -1.03107069e-05 
       4.86007214e-07       5.84355495e-06      -1.03075971e-05 
      -1.39136562e-07       6.34007597e-06      -1.11866185e-05 
      -5.03996664e-07       6.34007550e-06      -1.11898479e-05 
       1.37767048e-07       6.34330654e-06      -1.11898494e-05 
       5.02627150e-07       6.34330701e-06      -1.11866200e-05 
      -1.39136562e-07       6.34007597e-06      -1.11866185e-05 
      -5.03996664e-07       6.34007550e-06      -1.11898479e-05 
       1.37767048e-07       6.34330654e-06      -1.11898494e-05 
       5.02627150e-07       6.34330701e-06      -1.11866200e-05 
      -1.43527954e-07       6.85640887e-06      -1.20946936e-05 
      -5.20230607e-07       6.85640838e-06      -1.20980425e-05 
       1.42125275e-07       6.85975909e-06      -1.20980441e-05 
       5.18827927e-07       6.85975958e-06      -1.20946951e-05 
      -1.43527954e-07       6.85640887e-06      -1.20946936e-05 
      -5.20230607e-07       6.85640838e-06      -1.20980425e-05 
       1.42125275e-07       6.85975909e-06      -1.20980441e-05 
       5.18827927e-07       6.85975958e-06      -1.20946951e-05 
      -1.47799740e-07       7.38902564e-06      -1.30310705e-05 
      -5.36045754e-07       7.38902511e-06      -1.30345391e-05 
       1.46363539e-07       7.39249549e-06      -1.30345407e-05 
       5.34609553e-07       7.39249601e-06      -1.30310722e-05 
      -1.47799740e-07       7.38902564e-06      -1.30310705e-05 
      -5.36045754e-07       7.38902511e-06      -1.30345391e-05 
       1.46363539e-07       7.39249549e-06      -1.30345407e-05 
       5.34609553e-07       7.39249601e-06      -1.30310722e-05 
      -1.51951912e-07       7.93750960e-06      -1.39949992e-05 
      -5.51442100e-07       7.93750905e-06      -1.39985873e-05 
       1.50481845e-07       7.94109909e-06      -1.39985890e-05 
       5.49972032e-07       7.94109964e-06      -1.39950009e-05 
      -1.51951912e-07       7.93750960e-06      -1.39949992e-05 
      -5.51442100e-07       7.93750905e-06      -1.39985873e-05 
       1.50481845e-07       7.94109909e-06      -1.39985890e-05 
       5.49972032e-07       7.94109964e-06      -1.39950009e-05 
      -1.55984470e-07       8.50144411e-06      -1.49857292e-05 
      -5.66419641e-07       8.50144353e-06      -1.49894369e-05 
       1.54480198e-07       8.50515323e-06      -1.49894387e-05 
       5.64915369e-07       8.50515382e-06      -1.49857310e-05 
      -1.55984470e-07       8.50144411e-06      -1.49857292e-05 
      -5.66419641e-07       8.50144353e-06      -1.49894369e-05 
       1.54480198e-07       8.50515323e-06      -1.49894387e-05 
       5.64915369e-07       8.50515382e-06      -1.49857310e-05 
      -1.59897404e-07       9.08041251e-06      -1.60025103e-05 
      -5.80978371e-07       9.08041189e-06      -1.60063375e-05 
       1.58358603e-07       9.08424127e-06      -1.60063395e-05 
       5.79439569e-07       9.08424189e-06      -1.60025122e-05 
      -1.59897404e-07       9.08041251e-06      -1.60025103e-05 
      -5.80978371e-07       9.08041189e-06      -1.60063375e-05 
       1.58358603e-07       9.08424127e-06      -1.60063395e-05 
       5.79439569e-07       9.08424189e-06      -1.60025122e-05 
      -1.63690713e-07       9.67399814e-06      -1.70445923e-05 
      -5.95118287e-07       9.67399749e-06      -1.70485390e-05 
       1.62117061e-07       9.67794653e-06      -1.70485410e-05 
       5.93544635e-07       9.67794718e-06      -1.70445943e-05 
      -1.63690713e-07       9.67399814e-06      -1.70445923e-05 
      -5.95118287e-07       9.67399749e-06      -1.70485390e-05 
       1.62117061e-07       9.67794653e-06      -1.70485410e-05 
       5.93544635e-07       9.67794718e-06      -1.70445943e-05 
      -1.67364393e-07       1.02817843e-05      -1.81112247e-05 
      -6.08839384e-07       1.02817837e-05      -1.81152910e-05 
       1.65755582e-07       1.02858524e-05      -1.81152931e-05 
       6.07230572e-07       1.02858531e-05      -1.81112268e-05 
      -1.67364393e-07       1.02817843e-05      -1.81112247e-05 
      -6.08839384e-07       1.02817837e-05      -1.81152910e-05 
       1.65755582e-07       1.02858524e-05      -1.81152931e-05 
       6.07230573e-07       1.02858531e-05      -1.81112268e-05 
      -1.70921422e-07       1.09033717e-05      -1.92016837e-05 
      -6.22164428e-07       1.09033709e-05      -1.92058536e-05 
       1.69290274e-07       1.09075434e-05      -1.92058558e-05 
       6.20533281e-07       1.09075441e-05      -1.92016858e-05 
      -1.70921422e-07       1.09033717e-05      -1.92016837e-05 
      -6.22164428e-07       1.09033709e-05      -1.92058536e-05 
       1.69290274e-07       1.09075434e-05      -1.92058558e-05 
       6.20533281e-07       1.09075441e-05      -1.92016858e-05 
      -1.74376924e-07       1.15383812e-05      -2.03152993e-05 
      -6.35128125e-07       1.15383805e-05      -2.03195728e-05 
       1.72723073e-07       1.15426566e-05      -2.03195751e-05 
       6.33474274e-07       1.15426573e-05      -2.03153015e-05 
      -1.74376924e-07       1.15383812e-05      -2.03152993e-05 
      -6.35128125e-07       1.15383805e-05      -2.03195728e-05 
       1.72723073e-07       1.15426566e-05      -2.03195751e-05 
       6.33474274e-07       1.15426573e-05      -2.03153015e-05 
      -1.77730893e-07       1.21864511e-05      -2.14514264e-05 
      -6.47730467e-07       1.21864504e-05      -2.14558036e-05 
       1.76053987e-07       1.21908302e-05      -2.14558059e-05 
       6.46053560e-07       1.21908310e-05      -2.14514288e-05 
      -1.77730893e-07       1.21864511e-05      -2.14514264e-05 
      -6.47730467e-07       1.21864504e-05      -2.14558036e-05 
       1.76053987e-07       1.21908302e-05      -2.14558059e-05 
       6.46053560e-07       1.21908310e-05      -2.14514288e-05 
      -1.80983327e-07       1.28472196e-05      -2.26094200e-05 
      -6.59971452e-07       1.28472188e-05      -2.26139008e-05 
       1.79283015e-07       1.28517024e-05      -2.26139032e-05 
       6.58271140e-07       1.28517032e-05      -2.26094225e-05 
      -1.80983327e-07       1.28472196e-05      -2.26094200e-05 
      -6.59971452e-07       1.28472188e-05      -2.26139008e-05 
       1.79283015e-07       1.28517024e-05      -2.26139032e-05 
       6.58271140e-07       1.28517032e-05      -2.26094225e-05 
      -1.84134219e-07       1.35203248e-05      -2.37886350e-05 
      -6.71851073e-07       1.35203240e-05      -2.37932193e-05 
       1.82410167e-07       1.35249113e-05      -2.37932218e-05 
       6.70127021e-07       1.35249121e-05      -2.37886375e-05 
      -1.84134219e-07       1.35203248e-05      -2.37886350e-05 
      -6.71851073e-07       1.35203240e-05      -2.37932193e-05 
       1.82410167e-07       1.35249113e-05      -2.37932218e-05 
       6.70127021e-07       1.35249121e-05      -2.37886375e-05 
      -1.87183563e-07       1.42054050e-05      -2.49884261e-05 
      -6.83369325e-07       1.42054041e-05      -2.49931140e-05 
       1.85435447e-07       1.42100951e-05      -2.49931166e-05 
       6.81621208e-07       1.42100959e-05      -2.49884287e-05 
      -1.87183563e-07       1.42054050e-05      -2.49884261e-05 
      -6.83369325e-07       1.42054041e-05      -2.49931140e-05 
       1.85435447e-07       1.42100951e-05      -2.49931166e-05 
       6.81621208e-07       1.42100959e-05      -2.49884287e-05 
      -1.90131356e-07       1.49020981e-05      -2.62081482e-05 
      -6.94526204e-07       1.49020973e-05      -2.62129398e-05 
       1.88358858e-07       1.49068919e-05      -2.62129425e-05 
       6.92753707e-07       1.49068928e-05      -2.62081510e-05 
      -1.90131356e-07       1.49020981e-05      -2.62081482e-05 
      -6.94526204e-07       1.49020973e-05      -2.62129398e-05 
       1.88358858e-07       1.49068919e-05      -2.62129425e-05 
       6.92753707e-07       1.49068928e-05      -2.62081510e-05 
      -1.92977589e-07       1.56100426e-05      -2.74471564e-05 
      -7.05321702e-07       1.56100416e-05      -2.74520515e-05 
       1.91180408e-07       1.56149400e-05      -2.74520543e-05 
       7.03524522e-07       1.56149409e-05      -2.74471592e-05 
      -1.92977589e-07       1.56100426e-05      -2.74471564e-05 
      -7.05321702e-07       1.56100416e-05      -2.74520515e-05 