# vtk DataFile Version 2.0
./output/onsasExample_BladeCantileverBeamPitch_windVel3DDynamic 3D/onsasExample_BladeCantileverBeamPitch_windVel3DDynamic 3D_0326.vtk
ASCII
DATASET UNSTRUCTURED_GRID

POINTS 800 float
       4.204661e-24      -7.180703e-02      -7.180703e-02 
      -3.228239e-23       7.180703e-02      -7.180703e-02 
      -4.204661e-24       7.180703e-02       7.180703e-02 
       3.228239e-23      -7.180703e-02       7.180703e-02 
       2.000000e-01      -7.180702e-02      -7.180706e-02 
       2.000000e-01       7.180705e-02      -7.180706e-02 
       2.000000e-01       7.180705e-02       7.180701e-02 
       2.000000e-01      -7.180702e-02       7.180701e-02 
       2.000000e-01      -7.180702e-02      -7.180706e-02 
       2.000000e-01       7.180705e-02      -7.180706e-02 
       2.000000e-01       7.180705e-02       7.180701e-02 
       2.000000e-01      -7.180702e-02       7.180701e-02 
       4.000000e-01      -7.180698e-02      -7.180713e-02 
       3.999999e-01       7.180709e-02      -7.180713e-02 
       4.000000e-01       7.180709e-02       7.180693e-02 
       4.000001e-01      -7.180698e-02       7.180693e-02 
       4.000000e-01      -7.180698e-02      -7.180713e-02 
       3.999999e-01       7.180709e-02      -7.180713e-02 
       4.000000e-01       7.180709e-02       7.180693e-02 
       4.000001e-01      -7.180698e-02       7.180693e-02 
       6.000000e-01      -7.180691e-02      -7.180726e-02 
       5.999999e-01       7.180716e-02      -7.180726e-02 
       6.000000e-01       7.180716e-02       7.180681e-02 
       6.000001e-01      -7.180691e-02       7.180681e-02 
       6.000000e-01      -7.180691e-02      -7.180726e-02 
       5.999999e-01       7.180716e-02      -7.180726e-02 
       6.000000e-01       7.180716e-02       7.180681e-02 
       6.000001e-01      -7.180691e-02       7.180681e-02 
       8.000000e-01      -7.180682e-02      -7.180743e-02 
       7.999999e-01       7.180725e-02      -7.180743e-02 
       8.000000e-01       7.180725e-02       7.180664e-02 
       8.000001e-01      -7.180682e-02       7.180664e-02 
       8.000000e-01      -7.180682e-02      -7.180743e-02 
       7.999999e-01       7.180725e-02      -7.180743e-02 
       8.000000e-01       7.180725e-02       7.180664e-02 
       8.000001e-01      -7.180682e-02       7.180664e-02 
       1.000000e+00      -7.180670e-02      -7.180765e-02 
       9.999999e-01       7.180737e-02      -7.180765e-02 
       1.000000e+00       7.180737e-02       7.180642e-02 
       1.000000e+00      -7.180670e-02       7.180642e-02 
       1.000000e+00      -7.180670e-02      -7.180765e-02 
       9.999999e-01       7.180737e-02      -7.180765e-02 
       1.000000e+00       7.180737e-02       7.180642e-02 
       1.000000e+00      -7.180670e-02       7.180642e-02 
       1.200000e+00      -7.180655e-02      -7.180791e-02 
       1.200000e+00       7.180751e-02      -7.180791e-02 
       1.200000e+00       7.180751e-02       7.180615e-02 
       1.200000e+00      -7.180655e-02       7.180615e-02 
       1.200000e+00      -7.180655e-02      -7.180791e-02 
       1.200000e+00       7.180751e-02      -7.180791e-02 
       1.200000e+00       7.180751e-02       7.180615e-02 
       1.200000e+00      -7.180655e-02       7.180615e-02 
       1.400000e+00      -7.180638e-02      -7.180822e-02 
       1.400000e+00       7.180768e-02      -7.180822e-02 
       1.400000e+00       7.180768e-02       7.180584e-02 
       1.400000e+00      -7.180638e-02       7.180584e-02 
       1.400000e+00      -7.180638e-02      -7.180822e-02 
       1.400000e+00       7.180768e-02      -7.180822e-02 
       1.400000e+00       7.180768e-02       7.180584e-02 
       1.400000e+00      -7.180638e-02       7.180584e-02 
       1.600000e+00      -7.180619e-02      -7.180858e-02 
       1.600000e+00       7.180788e-02      -7.180858e-02 
       1.600000e+00       7.180788e-02       7.180549e-02 
       1.600000e+00      -7.180619e-02       7.180549e-02 
       1.600000e+00      -7.180619e-02      -7.180858e-02 
       1.600000e+00       7.180788e-02      -7.180858e-02 
       1.600000e+00       7.180788e-02       7.180549e-02 
       1.600000e+00      -7.180619e-02       7.180549e-02 
       1.800000e+00      -7.180597e-02      -7.180897e-02 
       1.800000e+00       7.180809e-02      -7.180898e-02 
       1.800000e+00       7.180809e-02       7.180509e-02 
       1.800000e+00      -7.180597e-02       7.180509e-02 
       1.800000e+00      -7.180597e-02      -7.180897e-02 
       1.800000e+00       7.180809e-02      -7.180898e-02 
       1.800000e+00       7.180809e-02       7.180509e-02 
       1.800000e+00      -7.180597e-02       7.180509e-02 
       2.000000e+00      -7.180573e-02      -7.180941e-02 
       2.000000e+00       7.180833e-02      -7.180942e-02 
       2.000000e+00       7.180833e-02       7.180465e-02 
       2.000000e+00      -7.180573e-02       7.180465e-02 
       2.000000e+00      -7.180573e-02      -7.180941e-02 
       2.000000e+00       7.180833e-02      -7.180942e-02 
       2.000000e+00       7.180833e-02       7.180465e-02 
       2.000000e+00      -7.180573e-02       7.180465e-02 
       2.200000e+00      -7.180547e-02      -7.180989e-02 
       2.200000e+00       7.180859e-02      -7.180990e-02 
       2.200000e+00       7.180860e-02       7.180417e-02 
       2.200000e+00      -7.180547e-02       7.180417e-02 
       2.200000e+00      -7.180547e-02      -7.180989e-02 
       2.200000e+00       7.180859e-02      -7.180990e-02 
       2.200000e+00       7.180860e-02       7.180417e-02 
       2.200000e+00      -7.180547e-02       7.180417e-02 
       2.400000e+00      -7.180519e-02      -7.181041e-02 
       2.400000e+00       7.180888e-02      -7.181042e-02 
       2.400000e+00       7.180888e-02       7.180365e-02 
       2.400000e+00      -7.180519e-02       7.180365e-02 
       2.400000e+00      -7.180519e-02      -7.181041e-02 
       2.400000e+00       7.180888e-02      -7.181042e-02 
       2.400000e+00       7.180888e-02       7.180365e-02 
       2.400000e+00      -7.180519e-02       7.180365e-02 
       2.600000e+00      -7.180488e-02      -7.181097e-02 
       2.600000e+00       7.180918e-02      -7.181098e-02 
       2.600000e+00       7.180919e-02       7.180309e-02 
       2.600000e+00      -7.180488e-02       7.180309e-02 
       2.600000e+00      -7.180488e-02      -7.181097e-02 
       2.600000e+00       7.180918e-02      -7.181098e-02 
       2.600000e+00       7.180919e-02       7.180309e-02 
       2.600000e+00      -7.180488e-02       7.180309e-02 
       2.800000e+00      -7.180456e-02      -7.181157e-02 
       2.800000e+00       7.180951e-02      -7.181157e-02 
       2.800000e+00       7.180951e-02       7.180249e-02 
       2.800000e+00      -7.180455e-02       7.180250e-02 
       2.800000e+00      -7.180456e-02      -7.181157e-02 
       2.800000e+00       7.180951e-02      -7.181157e-02 
       2.800000e+00       7.180951e-02       7.180249e-02 
       2.800000e+00      -7.180455e-02       7.180250e-02 
       3.000000e+00      -7.180421e-02      -7.181221e-02 
       3.000000e+00       7.180986e-02      -7.181221e-02 
       3.000000e+00       7.180986e-02       7.180186e-02 
       3.000000e+00      -7.180421e-02       7.180186e-02 
       3.000000e+00      -7.180421e-02      -7.181221e-02 
       3.000000e+00       7.180986e-02      -7.181221e-02 
       3.000000e+00       7.180986e-02       7.180186e-02 
       3.000000e+00      -7.180421e-02       7.180186e-02 
       3.200000e+00      -7.180384e-02      -7.181288e-02 
       3.200000e+00       7.181023e-02      -7.181288e-02 
       3.200000e+00       7.181023e-02       7.180119e-02 
       3.200000e+00      -7.180384e-02       7.180119e-02 
       3.200000e+00      -7.180384e-02      -7.181288e-02 
       3.200000e+00       7.181023e-02      -7.181288e-02 
       3.200000e+00       7.181023e-02       7.180119e-02 
       3.200000e+00      -7.180384e-02       7.180119e-02 
       3.400000e+00      -7.180345e-02      -7.181359e-02 
       3.400000e+00       7.181061e-02      -7.181359e-02 
       3.400000e+00       7.181061e-02       7.180048e-02 
       3.400000e+00      -7.180345e-02       7.180048e-02 
       3.400000e+00      -7.180345e-02      -7.181359e-02 
       3.400000e+00       7.181061e-02      -7.181359e-02 
       3.400000e+00       7.181061e-02       7.180048e-02 
       3.400000e+00      -7.180345e-02       7.180048e-02 
       3.600000e+00      -7.180305e-02      -7.181433e-02 
       3.600000e+00       7.181102e-02      -7.181433e-02 
       3.600000e+00       7.181102e-02       7.179974e-02 
       3.600000e+00      -7.180305e-02       7.179974e-02 
       3.600000e+00      -7.180305e-02      -7.181433e-02 
       3.600000e+00       7.181102e-02      -7.181433e-02 
       3.600000e+00       7.181102e-02       7.179974e-02 
       3.600000e+00      -7.180305e-02       7.179974e-02 
       3.800000e+00      -7.180262e-02      -7.181510e-02 
       3.800000e+00       7.181144e-02      -7.181511e-02 
       3.800000e+00       7.181145e-02       7.179896e-02 
       3.800000e+00      -7.180262e-02       7.179896e-02 
       3.800000e+00      -7.180262e-02      -7.181510e-02 
       3.800000e+00       7.181144e-02      -7.181511e-02 
       3.800000e+00       7.181145e-02       7.179896e-02 
       3.800000e+00      -7.180262e-02       7.179896e-02 
       4.000000e+00      -7.180218e-02      -7.181591e-02 
       4.000000e+00       7.181189e-02      -7.181592e-02 
       4.000000e+00       7.181189e-02       7.179815e-02 
       4.000000e+00      -7.180218e-02       7.179815e-02 
       4.000000e+00      -7.180218e-02      -7.181591e-02 
       4.000000e+00       7.181189e-02      -7.181592e-02 
       4.000000e+00       7.181189e-02       7.179815e-02 
       4.000000e+00      -7.180218e-02       7.179815e-02 
       4.200000e+00      -7.180172e-02      -7.181675e-02 
[...]
POINT_DATA       800 
VECTORS Displacements float
       4.20466064e-24       0.00000000e+00       0.00000000e+00 
      -3.22823892e-23       0.00000000e+00      -1.38777878e-17 
      -4.20466064e-24       0.00000000e+00       0.00000000e+00 
       3.22823892e-23       0.00000000e+00       1.38777878e-17 
      -8.28011595e-09       1.37084122e-08      -2.52262352e-08 
      -2.80125066e-08       1.37084108e-08      -2.53770512e-08 
       8.20546620e-09       1.38592319e-08      -2.53770558e-08 
       2.79378568e-08       1.38592332e-08      -2.52262397e-08 
      -8.28011595e-09       1.37084122e-08      -2.52262352e-08 
      -2.80125066e-08       1.37084108e-08      -2.53770512e-08 
       8.20546620e-09       1.38592319e-08      -2.53770558e-08 
       2.79378568e-08       1.38592332e-08      -2.52262397e-08 
      -1.63934083e-08       5.46328794e-08      -1.00394267e-07 
      -5.54794937e-08       5.46328741e-08      -1.00695895e-07 
       1.62439545e-08       5.49345209e-08      -1.00695913e-07 
       5.53300398e-08       5.49345263e-08      -1.00394285e-07 
      -1.63934083e-08       5.46328794e-08      -1.00394267e-07 
      -5.54794937e-08       5.46328741e-08      -1.00695895e-07 
       1.62439545e-08       5.49345209e-08      -1.00695913e-07 
       5.53300398e-08       5.49345263e-08      -1.00394285e-07 
      -2.43398756e-08       1.22246022e-07      -2.24511858e-07 
      -8.24009596e-08       1.22246010e-07      -2.24964292e-07 
       2.41154665e-08       1.22698487e-07      -2.24964331e-07 
       8.21765505e-08       1.22698499e-07      -2.24511897e-07 
      -2.43398756e-08       1.22246022e-07      -2.24511858e-07 
      -8.24009596e-08       1.22246010e-07      -2.24964292e-07 
       2.41154665e-08       1.22698487e-07      -2.24964331e-07 
       8.21765505e-08       1.22698499e-07      -2.24511897e-07 
      -3.21195162e-08       2.16020459e-07      -3.96586768e-07 
      -1.08776903e-07       2.16020438e-07      -3.97190004e-07 
       3.18200036e-08       2.16623750e-07      -3.97190073e-07 
       1.08477391e-07       2.16623771e-07      -3.96586836e-07 
      -3.21195162e-08       2.16020459e-07      -3.96586768e-07 
      -1.08776903e-07       2.16020438e-07      -3.97190004e-07 
       3.18200036e-08       2.16623750e-07      -3.97190073e-07 
       1.08477391e-07       2.16623771e-07      -3.96586836e-07 
      -3.97323288e-08       3.35428811e-07      -6.15626758e-07 
      -1.34607322e-07       3.35428780e-07      -6.16380793e-07 
       3.93575676e-08       3.36182930e-07      -6.16380898e-07 
       1.34232561e-07       3.36182961e-07      -6.15626863e-07 
      -3.97323288e-08       3.35428811e-07      -6.15626758e-07 
      -1.34607322e-07       3.35428780e-07      -6.16380793e-07 
       3.93575676e-08       3.36182930e-07      -6.16380898e-07 
       1.34232561e-07       3.36182961e-07      -6.15626863e-07 
      -4.71783115e-08       4.79943698e-07      -8.80639590e-07 
      -1.59892216e-07       4.79943654e-07      -8.81544420e-07 
       4.67281598e-08       4.80848646e-07      -8.81544568e-07 
       1.59442064e-07       4.80848691e-07      -8.80639738e-07 
      -4.71783115e-08       4.79943698e-07      -8.80639590e-07 
      -1.59892216e-07       4.79943654e-07      -8.81544420e-07 
       4.67281598e-08       4.80848646e-07      -8.81544568e-07 
       1.59442064e-07       4.80848691e-07      -8.80639738e-07 
      -5.44574630e-08       6.49037741e-07      -1.19063302e-06 
      -1.84631582e-07       6.49037682e-07      -1.19168865e-06 
       5.39317817e-08       6.50093519e-07      -1.19168884e-06 
       1.84105901e-07       6.50093578e-07      -1.19063322e-06 
      -5.44574630e-08       6.49037741e-07      -1.19063302e-06 
      -1.84631582e-07       6.49037682e-07      -1.19168865e-06 
       5.39317817e-08       6.50093519e-07      -1.19168884e-06 
       1.84105901e-07       6.50093578e-07      -1.19063322e-06 
      -6.15697822e-08       8.42183558e-07      -1.54461482e-06 
      -2.08825420e-07       8.42183482e-07      -1.54582123e-06 
       6.09684347e-08       8.43390169e-07      -1.54582149e-06 
       2.08224073e-07       8.43390244e-07      -1.54461508e-06 
      -6.15697822e-08       8.42183558e-07      -1.54461482e-06 
      -2.08825420e-07       8.42183482e-07      -1.54582123e-06 
       6.09684347e-08       8.43390169e-07      -1.54582149e-06 
       2.08224073e-07       8.43390244e-07      -1.54461508e-06 
      -6.85152663e-08       1.05885377e-06      -1.94159275e-06 
      -2.32473728e-07       1.05885368e-06      -1.94294994e-06 
       6.78381207e-08       1.06021121e-06      -1.94295026e-06 
       2.31796582e-07       1.06021131e-06      -1.94159306e-06 
      -6.85152663e-08       1.05885377e-06      -1.94159275e-06 
      -2.32473728e-07       1.05885368e-06      -1.94294994e-06 
       6.78381207e-08       1.06021121e-06      -1.94295026e-06 
       2.31796582e-07       1.06021131e-06      -1.94159306e-06 
      -7.52939151e-08       1.29852100e-06      -2.38057456e-06 
      -2.55576504e-07       1.29852088e-06      -2.38208253e-06 
       7.45408411e-08       1.30002928e-06      -2.38208291e-06 
       2.54823429e-07       1.30002939e-06      -2.38057493e-06 
      -7.52939155e-08       1.29852100e-06      -2.38057456e-06 
      -2.55576504e-07       1.29852088e-06      -2.38208253e-06 
       7.45408411e-08       1.30002928e-06      -2.38208291e-06 
       2.54823429e-07       1.30002939e-06      -2.38057493e-06 
      -8.19010664e-08       1.56067524e-06      -2.86059463e-06 
      -2.78149176e-07       1.56067510e-06      -2.86223743e-06 
       8.11006950e-08       1.56231839e-06      -2.86223788e-06 
       2.77348805e-07       1.56231853e-06      -2.86059508e-06 
      -8.19010664e-08       1.56067524e-06      -2.86059463e-06 
      -2.78149176e-07       1.56067510e-06      -2.86223743e-06 
       8.11006950e-08       1.56231839e-06      -2.86223788e-06 
       2.77348805e-07       1.56231853e-06      -2.86059508e-06 
      -8.83599776e-08       1.84482725e-06      -3.38074246e-06 
      -3.00234462e-07       1.84482709e-06      -3.38252008e-06 
       8.75119714e-08       1.84660528e-06      -3.38252060e-06 
       2.99386456e-07       1.84660544e-06      -3.38074298e-06 
      -8.83599776e-08       1.84482725e-06      -3.38074246e-06 
      -3.00234462e-07       1.84482709e-06      -3.38252008e-06 
       8.75119714e-08       1.84660528e-06      -3.38252060e-06 
       2.99386456e-07       1.84660544e-06      -3.38074298e-06 
      -9.46706464e-08       2.15050473e-06      -3.94013237e-06 
      -3.21832359e-07       2.15050455e-06      -3.94204481e-06 
       9.37746734e-08       2.15241764e-06      -3.94204541e-06 
       3.20936386e-07       2.15241782e-06      -3.94013297e-06 
      -9.46706464e-08       2.15050473e-06      -3.94013237e-06 
      -3.21832359e-07       2.15050455e-06      -3.94204481e-06 
       9.37746734e-08       2.15241764e-06      -3.94204541e-06 
       3.20936386e-07       2.15241782e-06      -3.94013297e-06 
      -1.00833068e-07       2.47723538e-06      -4.53787872e-06 
      -3.42942863e-07       2.47723517e-06      -4.53992597e-06 
       9.98888048e-08       2.47928317e-06      -4.53992665e-06 
       3.41998600e-07       2.47928337e-06      -4.53787940e-06 
      -1.00833068e-07       2.47723538e-06      -4.53787872e-06 
      -3.42942863e-07       2.47723517e-06      -4.53992597e-06 
       9.98888048e-08       2.47928317e-06      -4.53992665e-06 
       3.41998600e-07       2.47928337e-06      -4.53787940e-06 
      -1.06847240e-07       2.82454689e-06      -5.17309584e-06 
      -3.63565971e-07       2.82454666e-06      -5.17527791e-06 
       1.05854368e-07       2.82672956e-06      -5.17527868e-06 
       3.62573099e-07       2.82672979e-06      -5.17309661e-06 
      -1.06847240e-07       2.82454689e-06      -5.17309584e-06 
      -3.63565971e-07       2.82454666e-06      -5.17527791e-06 
       1.05854368e-07       2.82672956e-06      -5.17527868e-06 
       3.62573099e-07       2.82672979e-06      -5.17309661e-06 
      -1.12713159e-07       3.19196696e-06      -5.84489809e-06 
      -3.83701678e-07       3.19196670e-06      -5.84721497e-06 
       1.11671369e-07       3.19428452e-06      -5.84721582e-06 
       3.82659889e-07       3.19428477e-06      -5.84489894e-06 
      -1.12713159e-07       3.19196696e-06      -5.84489809e-06 
      -3.83701678e-07       3.19196670e-06      -5.84721497e-06 
       1.11671369e-07       3.19428452e-06      -5.84721582e-06 
       3.82659889e-07       3.19428477e-06      -5.84489894e-06 
      -1.18430818e-07       3.57902329e-06      -6.55239980e-06 
      -4.03349981e-07       3.57902301e-06      -6.55485149e-06 
       1.17339810e-07       3.58147573e-06      -6.55485243e-06 
       4.02258973e-07       3.58147601e-06      -6.55240074e-06 
      -1.18430818e-07       3.57902329e-06      -6.55239980e-06 
      -4.03349981e-07       3.57902301e-06      -6.55485149e-06 
       1.17339810e-07       3.58147573e-06      -6.55485243e-06 
       4.02258973e-07       3.58147601e-06      -6.55240074e-06 
      -1.24000218e-07       3.98524358e-06      -7.29471532e-06 
      -4.22510877e-07       3.98524327e-06      -7.29730182e-06 
       1.22859695e-07       3.98783090e-06      -7.29730285e-06 
       4.21370355e-07       3.98783121e-06      -7.29471635e-06 
      -1.24000218e-07       3.98524358e-06      -7.29471532e-06 
      -4.22510877e-07       3.98524327e-06      -7.29730182e-06 
       1.22859695e-07       3.98783090e-06      -7.29730285e-06 
       4.21370355e-07       3.98783121e-06      -7.29471635e-06 
      -1.29421351e-07       4.41015552e-06      -8.07095899e-06 
      -4.41184360e-07       4.41015518e-06      -8.07368029e-06 
       1.28231029e-07       4.41287772e-06      -8.07368142e-06 
       4.39994038e-07       4.41287806e-06      -8.07096012e-06 
      -1.29421351e-07       4.41015552e-06      -8.07095899e-06 
      -4.41184360e-07       4.41015518e-06      -8.07368029e-06 
       1.28231029e-07       4.41287772e-06      -8.07368142e-06 
       4.39994038e-07       4.41287806e-06      -8.07096012e-06 
      -1.34694216e-07       4.85328681e-06      -8.88024515e-06 
      -4.59370428e-07       4.85328645e-06      -8.88310127e-06 
       1.33453813e-07       4.85614390e-06      -8.88310249e-06 
       4.58130026e-07       4.85614427e-06      -8.88024637e-06 
      -1.34694216e-07       4.85328681e-06      -8.88024515e-06 
      -4.59370428e-07       4.85328645e-06      -8.88310127e-06 
       1.33453813e-07       4.85614390e-06      -8.88310249e-06 
       4.58130026e-07       4.85614427e-06      -8.88024637e-06 
      -1.39817750e-07       5.31418222e-06      -9.72171352e-06 
      -4.77087657e-07       5.31418182e-06      -9.72468852e-06 
       1.38547148e-07       5.31715826e-06      -9.72468984e-06 
       4.75817054e-07       5.31715866e-06      -9.72171484e-06 
      -1.39817750e-07       5.31418222e-06      -9.72171352e-06 
      -4.77087657e-07       5.31418182e-06      -9.72468852e-06 
       1.38547148e-07       5.31715826e-06      -9.72468984e-06 
       4.75817054e-07       5.31715866e-06      -9.72171484e-06 
      -1.44811409e-07       5.79240715e-06      -1.05945585e-05 
      -4.94375263e-07       5.79240673e-06      -1.05976524e-05 
       1.43510208e-07       5.79550215e-06      -1.05976538e-05 
       4.93074062e-07       5.79550258e-06      -1.05945599e-05 
      -1.44811409e-07       5.79240715e-06      -1.05945585e-05 
      -4.94375263e-07       5.79240673e-06      -1.05976524e-05 
       1.43510208e-07       5.79550215e-06      -1.05976538e-05 
       4.93074062e-07       5.79550258e-06      -1.05945599e-05 
      -1.49675185e-07       6.28754418e-06      -1.14980004e-05 
      -5.11233238e-07       6.28754372e-06      -1.15012131e-05 
       1.48343000e-07       6.29075813e-06      -1.15012146e-05 
       5.09901053e-07       6.29075859e-06      -1.14980019e-05 
      -1.49675185e-07       6.28754418e-06      -1.14980004e-05 
      -5.11233238e-07       6.28754372e-06      -1.15012131e-05 
       1.48343000e-07       6.29075813e-06      -1.15012146e-05 
       5.09901053e-07       6.29075859e-06      -1.14980019e-05 
      -1.54409077e-07       6.79917586e-06      -1.24312594e-05 
      -5.27661581e-07       6.79917538e-06      -1.24345910e-05 
       1.53045526e-07       6.80250877e-06      -1.24345927e-05 
       5.26298031e-07       6.80250926e-06      -1.24312610e-05 
      -1.54409077e-07       6.79917586e-06      -1.24312594e-05 
      -5.27661581e-07       6.79917538e-06      -1.24345910e-05 
       1.53045526e-07       6.80250877e-06      -1.24345927e-05 
       5.26298031e-07       6.80250926e-06      -1.24312610e-05 
      -1.59013076e-07       7.32688477e-06      -1.33935559e-05 
      -5.43660285e-07       7.32688425e-06      -1.33970064e-05 
       1.57617793e-07       7.33033664e-06      -1.33970081e-05 
       5.42265002e-07       7.33033715e-06      -1.33935576e-05 
      -1.59013076e-07       7.32688477e-06      -1.33935559e-05 
      -5.43660285e-07       7.32688425e-06      -1.33970064e-05 
       1.57617793e-07       7.33033664e-06      -1.33970081e-05 
       5.42265002e-07       7.33033715e-06      -1.33935576e-05 
      -1.63487180e-07       7.87025347e-06      -1.43841101e-05 
      -5.59229346e-07       7.87025292e-06      -1.43876794e-05 
       1.62059805e-07       7.87382429e-06      -1.43876813e-05 
       5.57801971e-07       7.87382484e-06      -1.43841119e-05 
      -1.63487180e-07       7.87025347e-06      -1.43841101e-05 
      -5.59229346e-07       7.87025292e-06      -1.43876794e-05 
       1.62059805e-07       7.87382429e-06      -1.43876813e-05 
       5.57801971e-07       7.87382484e-06      -1.43841119e-05 
      -1.67831383e-07       8.42886452e-06      -1.54021422e-05 
      -5.74368760e-07       8.42886394e-06      -1.54058305e-05 
       1.66371567e-07       8.43255430e-06      -1.54058324e-05 
       5.72908943e-07       8.43255487e-06      -1.54021441e-05 
      -1.67831383e-07       8.42886452e-06      -1.54021422e-05 
      -5.74368760e-07       8.42886394e-06      -1.54058305e-05 
       1.66371567e-07       8.43255430e-06      -1.54058324e-05 
       5.72908943e-07       8.43255487e-06      -1.54021441e-05 
      -1.72045679e-07       9.00230049e-06      -1.64468726e-05 
      -5.89078518e-07       9.00229988e-06      -1.64506798e-05 
       1.70553085e-07       9.00610923e-06      -1.64506818e-05 
       5.87585925e-07       9.00610983e-06      -1.64468746e-05 
      -1.72045679e-07       9.00230049e-06      -1.64468726e-05 
      -5.89078518e-07       9.00229988e-06      -1.64506798e-05 
       1.70553085e-07       9.00610923e-06      -1.64506818e-05 
       5.87585925e-07       9.00610983e-06      -1.64468746e-05 
      -1.76130065e-07       9.59014395e-06      -1.75175216e-05 
      -6.03358620e-07       9.59014331e-06      -1.75214476e-05 
       1.74604362e-07       9.59407164e-06      -1.75214497e-05 
       6.01832918e-07       9.59407227e-06      -1.75175237e-05 
      -1.76130065e-07       9.59014395e-06      -1.75175216e-05 
      -6.03358620e-07       9.59014331e-06      -1.75214476e-05 
       1.74604362e-07       9.59407164e-06      -1.75214497e-05 
       6.01832918e-07       9.59407227e-06      -1.75175237e-05 
      -1.80084536e-07       1.01919775e-05      -1.86133093e-05 
      -6.17209059e-07       1.01919768e-05      -1.86173542e-05 
       1.78525404e-07       1.01960241e-05      -1.86173564e-05 
       6.15649927e-07       1.01960248e-05      -1.86133115e-05 
      -1.80084535e-07       1.01919775e-05      -1.86133093e-05 
      -6.17209058e-07       1.01919768e-05      -1.86173542e-05 
       1.78525405e-07       1.01960241e-05      -1.86173564e-05 
       6.15649928e-07       1.01960248e-05      -1.86133115e-05 
      -1.83911485e-07       1.08074006e-05      -1.97334815e-05 
      -6.30651840e-07       1.08073999e-05      -1.97376294e-05 
       1.82331975e-07       1.08115503e-05      -1.97376317e-05 
       6.29072330e-07       1.08115510e-05      -1.97334838e-05 
      -1.83911485e-07       1.08074006e-05      -1.97334815e-05 
      -6.30651840e-07       1.08073999e-05      -1.97376294e-05 
       1.82331975e-07       1.08115503e-05      -1.97376317e-05 
       6.29072330e-07       1.08115510e-05      -1.97334838e-05 
      -1.87627238e-07       1.14360338e-05      -2.08773392e-05 
      -6.43723294e-07       1.14360331e-05      -2.08815901e-05 
       1.86026970e-07       1.14402866e-05      -2.08815924e-05 
       6.42123026e-07       1.14402873e-05      -2.08773416e-05 
      -1.87627238e-07       1.14360338e-05      -2.08773392e-05 
      -6.43723294e-07       1.14360331e-05      -2.08815901e-05 
       1.86026970e-07       1.14402866e-05      -2.08815924e-05 
       6.42123026e-07       1.14402873e-05      -2.08773416e-05 
      -1.91231789e-07       1.20775148e-05      -2.20442100e-05 
      -6.56423413e-07       1.20775141e-05      -2.20485638e-05 
       1.89610398e-07       1.20818706e-05      -2.20485663e-05 
       6.54802022e-07       1.20818714e-05      -2.20442125e-05 
      -1.91231789e-07       1.20775148e-05      -2.20442100e-05 
      -6.56423413e-07       1.20775141e-05      -2.20485638e-05 
       1.89610398e-07       1.20818706e-05      -2.20485663e-05 
       6.54802022e-07       1.20818714e-05      -2.20442125e-05 
      -1.94725131e-07       1.27314814e-05      -2.32334213e-05 
      -6.68752193e-07       1.27314806e-05      -2.32378781e-05 
       1.93082260e-07       1.27359403e-05      -2.32378807e-05 
       6.67109322e-07       1.27359410e-05      -2.32334239e-05 
      -1.94725131e-07       1.27314814e-05      -2.32334213e-05 
      -6.68752193e-07       1.27314806e-05      -2.32378781e-05 
       1.93082260e-07       1.27359403e-05      -2.32378807e-05 
       6.67109322e-07       1.27359410e-05      -2.32334239e-05 
      -1.98107262e-07       1.33975713e-05      -2.44443007e-05 
      -6.80709629e-07       1.33975705e-05      -2.44488605e-05 
       1.96442564e-07       1.34021332e-05      -2.44488632e-05 
       6.79044932e-07       1.34021340e-05      -2.44443034e-05 
      -1.98107262e-07       1.33975713e-05      -2.44443007e-05 
      -6.80709629e-07       1.33975705e-05      -2.44488605e-05 
       1.96442564e-07       1.34021332e-05      -2.44488632e-05 
       6.79044932e-07       1.34021340e-05      -2.44443034e-05 
      -2.01378174e-07       1.40754222e-05      -2.56761757e-05 
      -6.92295715e-07       1.40754213e-05      -2.56808384e-05 
       1.99691315e-07       1.40800871e-05      -2.56808412e-05 
       6.90608856e-07       1.40800879e-05      -2.56761785e-05 
      -2.01378174e-07       1.40754222e-05      -2.56761757e-05 
      -6.92295715e-07       1.40754213e-05      -2.56808384e-05 
       1.99691315e-07       1.40800871e-05      -2.56808412e-05 
       6.90608856e-07       1.40800879e-05      -2.56761785e-05 
      -2.04537862e-07       1.47646718e-05      -2.69283737e-05 
      -7.03510445e-07       1.47646709e-05      -2.69331394e-05 
       2.02828518e-07       1.47694398e-05      -2.69331423e-05 
       7.01801103e-07       1.47694406e-05      -2.69283766e-05 
      -2.04537862e-07       1.47646718e-05      -2.69283737e-05 
      -7.03510445e-07       1.47646709e-05      -2.69331394e-05 
       2.02828518e-07       1.47694398e-05      -2.69331423e-05 
       7.01801103e-07       1.47694406e-05      -2.69283766e-05 
      -2.07586320e-07       1.54649579e-05      -2.82002223e-05 
      -7.14353814e-07       1.54649570e-05      -2.82050910e-05 
       2.05854181e-07       1.54698289e-05      -2.82050940e-05 
       7.12621675e-07       1.54698298e-05      -2.82002253e-05 
      -2.07586320e-07       1.54649579e-05      -2.82002223e-05 
      -7.14353814e-07       1.54649570e-05      -2.82050910e-05 