# vtk DataFile Version 2.0
./output/onsasExample_BladeCantileverBeamPitch_windVel3DDynamic 3D/onsasExample_BladeCantileverBeamPitch_windVel3DDynamic 3D_0254.vtk
ASCII
DATASET UNSTRUCTURED_GRID

POINTS 800 float
      -1.523908e-23      -7.180703e-02      -7.180703e-02 
      -2.801976e-23       7.180703e-02      -7.180703e-02 
       1.523908e-23       7.180703e-02       7.180703e-02 
       2.801976e-23      -7.180703e-02       7.180703e-02 
       2.000000e-01      -7.180702e-02      -7.180706e-02 
       2.000000e-01       7.180705e-02      -7.180706e-02 
       2.000000e-01       7.180705e-02       7.180701e-02 
       2.000000e-01      -7.180702e-02       7.180701e-02 
       2.000000e-01      -7.180702e-02      -7.180706e-02 
       2.000000e-01       7.180705e-02      -7.180706e-02 
       2.000000e-01       7.180705e-02       7.180701e-02 
       2.000000e-01      -7.180702e-02       7.180701e-02 
       4.000000e-01      -7.180698e-02      -7.180713e-02 
       3.999999e-01       7.180709e-02      -7.180713e-02 
       4.000000e-01       7.180709e-02       7.180693e-02 
       4.000001e-01      -7.180698e-02       7.180693e-02 
       4.000000e-01      -7.180698e-02      -7.180713e-02 
       3.999999e-01       7.180709e-02      -7.180713e-02 
       4.000000e-01       7.180709e-02       7.180693e-02 
       4.000001e-01      -7.180698e-02       7.180693e-02 
       6.000000e-01      -7.180691e-02      -7.180725e-02 
       5.999999e-01       7.180716e-02      -7.180725e-02 
       6.000000e-01       7.180716e-02       7.180681e-02 
       6.000001e-01      -7.180691e-02       7.180681e-02 
       6.000000e-01      -7.180691e-02      -7.180725e-02 
       5.999999e-01       7.180716e-02      -7.180725e-02 
       6.000000e-01       7.180716e-02       7.180681e-02 
       6.000001e-01      -7.180691e-02       7.180681e-02 
       8.000000e-01      -7.180682e-02      -7.180742e-02 
       7.999999e-01       7.180725e-02      -7.180742e-02 
       8.000000e-01       7.180725e-02       7.180664e-02 
       8.000001e-01      -7.180682e-02       7.180664e-02 
       8.000000e-01      -7.180682e-02      -7.180742e-02 
       7.999999e-01       7.180725e-02      -7.180742e-02 
       8.000000e-01       7.180725e-02       7.180664e-02 
       8.000001e-01      -7.180682e-02       7.180664e-02 
       1.000000e+00      -7.180670e-02      -7.180764e-02 
       9.999999e-01       7.180737e-02      -7.180764e-02 
       1.000000e+00       7.180737e-02       7.180643e-02 
       1.000000e+00      -7.180670e-02       7.180643e-02 
       1.000000e+00      -7.180670e-02      -7.180764e-02 
       9.999999e-01       7.180737e-02      -7.180764e-02 
       1.000000e+00       7.180737e-02       7.180643e-02 
       1.000000e+00      -7.180670e-02       7.180643e-02 
       1.200000e+00      -7.180655e-02      -7.180790e-02 
       1.200000e+00       7.180751e-02      -7.180790e-02 
       1.200000e+00       7.180751e-02       7.180617e-02 
       1.200000e+00      -7.180655e-02       7.180617e-02 
       1.200000e+00      -7.180655e-02      -7.180790e-02 
       1.200000e+00       7.180751e-02      -7.180790e-02 
       1.200000e+00       7.180751e-02       7.180617e-02 
       1.200000e+00      -7.180655e-02       7.180617e-02 
       1.400000e+00      -7.180638e-02      -7.180820e-02 
       1.400000e+00       7.180768e-02      -7.180821e-02 
       1.400000e+00       7.180768e-02       7.180586e-02 
       1.400000e+00      -7.180638e-02       7.180586e-02 
       1.400000e+00      -7.180638e-02      -7.180820e-02 
       1.400000e+00       7.180768e-02      -7.180821e-02 
       1.400000e+00       7.180768e-02       7.180586e-02 
       1.400000e+00      -7.180638e-02       7.180586e-02 
       1.600000e+00      -7.180619e-02      -7.180855e-02 
       1.600000e+00       7.180788e-02      -7.180855e-02 
       1.600000e+00       7.180788e-02       7.180551e-02 
       1.600000e+00      -7.180619e-02       7.180551e-02 
       1.600000e+00      -7.180619e-02      -7.180855e-02 
       1.600000e+00       7.180788e-02      -7.180855e-02 
       1.600000e+00       7.180788e-02       7.180551e-02 
       1.600000e+00      -7.180619e-02       7.180551e-02 
       1.800000e+00      -7.180597e-02      -7.180894e-02 
       1.800000e+00       7.180809e-02      -7.180895e-02 
       1.800000e+00       7.180810e-02       7.180512e-02 
       1.800000e+00      -7.180597e-02       7.180512e-02 
       1.800000e+00      -7.180597e-02      -7.180894e-02 
       1.800000e+00       7.180809e-02      -7.180895e-02 
       1.800000e+00       7.180810e-02       7.180512e-02 
       1.800000e+00      -7.180597e-02       7.180512e-02 
       2.000000e+00      -7.180573e-02      -7.180938e-02 
       2.000000e+00       7.180833e-02      -7.180938e-02 
       2.000000e+00       7.180834e-02       7.180469e-02 
       2.000000e+00      -7.180573e-02       7.180469e-02 
       2.000000e+00      -7.180573e-02      -7.180938e-02 
       2.000000e+00       7.180833e-02      -7.180938e-02 
       2.000000e+00       7.180834e-02       7.180469e-02 
       2.000000e+00      -7.180573e-02       7.180469e-02 
       2.200000e+00      -7.180547e-02      -7.180985e-02 
       2.200000e+00       7.180860e-02      -7.180985e-02 
       2.200000e+00       7.180860e-02       7.180422e-02 
       2.200000e+00      -7.180547e-02       7.180422e-02 
       2.200000e+00      -7.180547e-02      -7.180985e-02 
       2.200000e+00       7.180860e-02      -7.180985e-02 
       2.200000e+00       7.180860e-02       7.180422e-02 
       2.200000e+00      -7.180547e-02       7.180422e-02 
       2.400000e+00      -7.180518e-02      -7.181036e-02 
       2.400000e+00       7.180888e-02      -7.181036e-02 
       2.400000e+00       7.180888e-02       7.180371e-02 
       2.400000e+00      -7.180518e-02       7.180371e-02 
       2.400000e+00      -7.180518e-02      -7.181036e-02 
       2.400000e+00       7.180888e-02      -7.181036e-02 
       2.400000e+00       7.180888e-02       7.180371e-02 
       2.400000e+00      -7.180518e-02       7.180371e-02 
       2.600000e+00      -7.180488e-02      -7.181091e-02 
       2.600000e+00       7.180919e-02      -7.181091e-02 
       2.600000e+00       7.180919e-02       7.180315e-02 
       2.600000e+00      -7.180488e-02       7.180316e-02 
       2.600000e+00      -7.180488e-02      -7.181091e-02 
       2.600000e+00       7.180919e-02      -7.181091e-02 
       2.600000e+00       7.180919e-02       7.180315e-02 
       2.600000e+00      -7.180488e-02       7.180316e-02 
       2.800000e+00      -7.180455e-02      -7.181150e-02 
       2.800000e+00       7.180952e-02      -7.181150e-02 
       2.800000e+00       7.180952e-02       7.180257e-02 
       2.800000e+00      -7.180455e-02       7.180257e-02 
       2.800000e+00      -7.180455e-02      -7.181150e-02 
       2.800000e+00       7.180952e-02      -7.181150e-02 
       2.800000e+00       7.180952e-02       7.180257e-02 
       2.800000e+00      -7.180455e-02       7.180257e-02 
       3.000000e+00      -7.180420e-02      -7.181212e-02 
       3.000000e+00       7.180986e-02      -7.181212e-02 
       3.000000e+00       7.180987e-02       7.180194e-02 
       3.000000e+00      -7.180420e-02       7.180194e-02 
       3.000000e+00      -7.180420e-02      -7.181212e-02 
       3.000000e+00       7.180986e-02      -7.181212e-02 
       3.000000e+00       7.180987e-02       7.180194e-02 
       3.000000e+00      -7.180420e-02       7.180194e-02 
       3.200000e+00      -7.180383e-02      -7.181278e-02 
       3.200000e+00       7.181023e-02      -7.181278e-02 
       3.200000e+00       7.181023e-02       7.180128e-02 
       3.200000e+00      -7.180383e-02       7.180128e-02 
       3.200000e+00      -7.180383e-02      -7.181278e-02 
       3.200000e+00       7.181023e-02      -7.181278e-02 
       3.200000e+00       7.181023e-02       7.180128e-02 
       3.200000e+00      -7.180383e-02       7.180128e-02 
       3.400000e+00      -7.180345e-02      -7.181348e-02 
       3.400000e+00       7.181062e-02      -7.181348e-02 
       3.400000e+00       7.181062e-02       7.180059e-02 
       3.400000e+00      -7.180344e-02       7.180059e-02 
       3.400000e+00      -7.180345e-02      -7.181348e-02 
       3.400000e+00       7.181062e-02      -7.181348e-02 
       3.400000e+00       7.181062e-02       7.180059e-02 
       3.400000e+00      -7.180344e-02       7.180059e-02 
       3.600000e+00      -7.180304e-02      -7.181421e-02 
       3.600000e+00       7.181103e-02      -7.181421e-02 
       3.600000e+00       7.181103e-02       7.179986e-02 
       3.600000e+00      -7.180304e-02       7.179986e-02 
       3.600000e+00      -7.180304e-02      -7.181421e-02 
       3.600000e+00       7.181103e-02      -7.181421e-02 
       3.600000e+00       7.181103e-02       7.179986e-02 
       3.600000e+00      -7.180304e-02       7.179986e-02 
       3.800000e+00      -7.180261e-02      -7.181497e-02 
       3.800000e+00       7.181145e-02      -7.181497e-02 
       3.800000e+00       7.181146e-02       7.179909e-02 
       3.800000e+00      -7.180261e-02       7.179910e-02 
       3.800000e+00      -7.180261e-02      -7.181497e-02 
       3.800000e+00       7.181145e-02      -7.181497e-02 
       3.800000e+00       7.181146e-02       7.179909e-02 
       3.800000e+00      -7.180261e-02       7.179910e-02 
       4.000000e+00      -7.180217e-02      -7.181577e-02 
       4.000000e+00       7.181190e-02      -7.181577e-02 
       4.000000e+00       7.181190e-02       7.179830e-02 
       4.000000e+00      -7.180217e-02       7.179830e-02 
       4.000000e+00      -7.180217e-02      -7.181577e-02 
       4.000000e+00       7.181190e-02      -7.181577e-02 
       4.000000e+00       7.181190e-02       7.179830e-02 
       4.000000e+00      -7.180217e-02       7.179830e-02 
       4.200000e+00      -7.180171e-02      -7.181659e-02 
[...]
POINT_DATA       800 
VECTORS Displacements float
      -1.52390800e-23       1.38777878e-17       0.00000000e+00 
      -2.80197570e-23       0.00000000e+00       0.00000000e+00 
       1.52390800e-23      -1.38777878e-17       0.00000000e+00 
       2.80197570e-23       0.00000000e+00       0.00000000e+00 
      -7.98343502e-09       1.37338853e-08      -2.48321405e-08 
      -2.77536867e-08       1.37338840e-08      -2.49847218e-08 
       7.90052840e-09       1.38864701e-08      -2.49847262e-08 
       2.76707801e-08       1.38864715e-08      -2.48321450e-08 
      -7.98343502e-09       1.37338853e-08      -2.48321405e-08 
      -2.77536867e-08       1.37338840e-08      -2.49847218e-08 
       7.90052840e-09       1.38864701e-08      -2.49847262e-08 
       2.76707801e-08       1.38864715e-08      -2.48321450e-08 
      -1.58028637e-08       5.47365958e-08      -9.88249472e-08 
      -5.49647342e-08       5.47365905e-08      -9.91301049e-08 
       1.56368998e-08       5.50417675e-08      -9.91301222e-08 
       5.47987702e-08       5.50417728e-08      -9.88249645e-08 
      -1.58028637e-08       5.47365958e-08      -9.88249472e-08 
      -5.49647342e-08       5.47365905e-08      -9.91301049e-08 
       1.56368998e-08       5.50417675e-08      -9.91301222e-08 
       5.47987702e-08       5.50417728e-08      -9.88249645e-08 
      -2.34582845e-08       1.22480839e-07      -2.20994121e-07 
      -8.16331411e-08       1.22480828e-07      -2.21451850e-07 
       2.32091156e-08       1.22938600e-07      -2.21451889e-07 
       8.13839722e-08       1.22938612e-07      -2.20994159e-07 
      -2.34582845e-08       1.22480839e-07      -2.20994121e-07 
      -8.16331411e-08       1.22480828e-07      -2.21451850e-07 
       2.32091156e-08       1.22938600e-07      -2.21451889e-07 
       8.13839722e-08       1.22938612e-07      -2.20994159e-07 
      -3.09496960e-08       2.16439324e-07      -3.90355362e-07 
      -1.07758906e-07       2.16439303e-07      -3.90965660e-07 
       3.06171775e-08       2.17049675e-07      -3.90965726e-07 
       1.07426387e-07       2.17049696e-07      -3.90355429e-07 
      -3.09496960e-08       2.16439324e-07      -3.90355362e-07 
      -1.07758906e-07       2.16439303e-07      -3.90965660e-07 
       3.06171775e-08       2.17049675e-07      -3.90965726e-07 
       1.07426387e-07       2.17049696e-07      -3.90355429e-07 
      -3.82770969e-08       3.36084758e-07      -6.05924372e-07 
      -1.33342027e-07       3.36084726e-07      -6.06687233e-07 
       3.78610869e-08       3.36847701e-07      -6.06687336e-07 
       1.32926017e-07       3.36847733e-07      -6.05924474e-07 
      -3.82770969e-08       3.36084758e-07      -6.05924372e-07 
      -1.33342027e-07       3.36084726e-07      -6.06687233e-07 
       3.78610869e-08       3.36847701e-07      -6.06687336e-07 
       1.32926017e-07       3.36847733e-07      -6.05924474e-07 
      -4.54404852e-08       4.80889848e-07      -8.66716851e-07 
      -1.58382503e-07       4.80889804e-07      -8.67632273e-07 
       4.49408450e-08       4.81805386e-07      -8.67632417e-07 
       1.57882863e-07       4.81805430e-07      -8.66716995e-07 
      -4.54404852e-08       4.80889848e-07      -8.66716851e-07 
      -1.58382503e-07       4.80889804e-07      -8.67632273e-07 
       4.49408450e-08       4.81805386e-07      -8.67632417e-07 
       1.57882863e-07       4.81805430e-07      -8.66716995e-07 
      -5.24398598e-08       6.50327303e-07      -1.17174850e-06 
      -1.82880333e-07       6.50327244e-07      -1.17281648e-06 
       5.18564538e-08       6.51395436e-07      -1.17281667e-06 
       1.82296927e-07       6.51395496e-07      -1.17174869e-06 
      -5.24398598e-08       6.50327303e-07      -1.17174850e-06 
      -1.82880333e-07       6.50327244e-07      -1.17281648e-06 
       5.18564538e-08       6.51395436e-07      -1.17281667e-06 
       1.82296927e-07       6.51395496e-07      -1.17174869e-06 
      -5.92752190e-08       8.43869831e-07      -1.52003502e-06 
      -2.06835514e-07       8.43869756e-07      -1.52125555e-06 
       5.86079143e-08       8.45090561e-07      -1.52125580e-06 
       2.06168209e-07       8.45090637e-07      -1.52003527e-06 
      -5.92752190e-08       8.43869831e-07      -1.52003502e-06 
      -2.06835514e-07       8.43869756e-07      -1.52125555e-06 
       5.86079143e-08       8.45090561e-07      -1.52125580e-06 
       2.06168209e-07       8.45090637e-07      -1.52003527e-06 
      -6.59465618e-08       1.06099014e-06      -1.91059211e-06 
      -2.30248046e-07       1.06099005e-06      -1.91196520e-06 
       6.51952288e-08       1.06236347e-06      -1.91196550e-06 
       2.29496713e-07       1.06236356e-06      -1.91059242e-06 
      -6.59465618e-08       1.06099014e-06      -1.91059211e-06 
      -2.30248046e-07       1.06099005e-06      -1.91196520e-06 
       6.51952288e-08       1.06236347e-06      -1.91196550e-06 
       2.29496713e-07       1.06236356e-06      -1.91059242e-06 
      -7.24538860e-08       1.30116094e-06      -2.34243548e-06 
      -2.53117927e-07       1.30116082e-06      -2.34396111e-06 
       7.16183979e-08       1.30268686e-06      -2.34396148e-06 
       2.52282438e-07       1.30268698e-06      -2.34243584e-06 
      -7.24538860e-08       1.30116094e-06      -2.34243548e-06 
      -2.53117927e-07       1.30116082e-06      -2.34396111e-06 
       7.16183979e-08       1.30268686e-06      -2.34396148e-06 
       2.52282438e-07       1.30268698e-06      -2.34243584e-06 
      -7.87926657e-08       1.56387241e-06      -2.81460773e-06 
      -2.75460880e-07       1.56387228e-06      -2.81626991e-06 
       7.79017482e-08       1.56553494e-06      -2.81627034e-06 
       2.74569962e-07       1.56553508e-06      -2.81460817e-06 
      -7.87926657e-08       1.56387241e-06      -2.81460773e-06 
      -2.75460880e-07       1.56387228e-06      -2.81626991e-06 
       7.79017482e-08       1.56553494e-06      -2.81627034e-06 
       2.74569962e-07       1.56553508e-06      -2.81460817e-06 
      -8.49862896e-08       1.84863570e-06      -3.32620726e-06 
      -2.97319832e-07       1.84863554e-06      -3.32800599e-06 
       8.40396130e-08       1.85043483e-06      -3.32800649e-06 
       2.96373156e-07       1.85043499e-06      -3.32620777e-06 
      -8.49862896e-08       1.84863570e-06      -3.32620726e-06 
      -2.97319832e-07       1.84863554e-06      -3.32800599e-06 
       8.40396130e-08       1.85043483e-06      -3.32800649e-06 
       2.96373156e-07       1.85043499e-06      -3.32620777e-06 
      -9.10347553e-08       2.15497891e-06      -3.87635744e-06 
      -3.18694781e-07       2.15497873e-06      -3.87829271e-06 
       9.00319956e-08       2.15691464e-06      -3.87829329e-06 
       3.17692022e-07       2.15691482e-06      -3.87635802e-06 
      -9.10347553e-08       2.15497891e-06      -3.87635744e-06 
      -3.18694781e-07       2.15497873e-06      -3.87829271e-06 
       9.00319956e-08       2.15691464e-06      -3.87829329e-06 
       3.17692022e-07       2.15691482e-06      -3.87635802e-06 
      -9.69380576e-08       2.48243016e-06      -4.46418163e-06 
      -3.39585722e-07       2.48242996e-06      -4.46625344e-06 
       9.58788995e-08       2.48450250e-06      -4.46625410e-06 
       3.38526564e-07       2.48450271e-06      -4.46418229e-06 
      -9.69380576e-08       2.48243016e-06      -4.46418163e-06 
      -3.39585722e-07       2.48242996e-06      -4.46625344e-06 
       9.58788995e-08       2.48450250e-06      -4.46625410e-06 
       3.38526564e-07       2.48450271e-06      -4.46418229e-06 
      -1.02696194e-07       2.83051758e-06      -5.08880319e-06 
      -3.59992653e-07       2.83051735e-06      -5.09101154e-06 
       1.01580328e-07       2.83272652e-06      -5.09101228e-06 
       3.58876786e-07       2.83272675e-06      -5.08880393e-06 
      -1.02696194e-07       2.83051758e-06      -5.08880319e-06 
      -3.59992653e-07       2.83051735e-06      -5.09101154e-06 
       1.01580328e-07       2.83272652e-06      -5.09101228e-06 
       3.58876786e-07       2.83272675e-06      -5.08880393e-06 
      -1.08309161e-07       3.19876927e-06      -5.74934549e-06 
      -3.79915568e-07       3.19876902e-06      -5.75169037e-06 
       1.07136285e-07       3.20111482e-06      -5.75169120e-06 
       3.78742692e-07       3.20111508e-06      -5.74934631e-06 
      -1.08309161e-07       3.19876927e-06      -5.74934549e-06 
      -3.79915568e-07       3.19876902e-06      -5.75169037e-06 
       1.07136285e-07       3.20111482e-06      -5.75169120e-06 
       3.78742692e-07       3.20111508e-06      -5.74934631e-06 
      -1.13776954e-07       3.58671336e-06      -6.44493189e-06 
      -3.99354465e-07       3.58671308e-06      -6.44741330e-06 
       1.12546775e-07       3.58919552e-06      -6.44741422e-06 
       3.98124285e-07       3.58919580e-06      -6.44493280e-06 
      -1.13776954e-07       3.58671336e-06      -6.44493189e-06 
      -3.99354465e-07       3.58671308e-06      -6.44741330e-06 
       1.12546775e-07       3.58919552e-06      -6.44741422e-06 
       3.98124285e-07       3.58919580e-06      -6.44493280e-06 
      -1.19099570e-07       3.99387797e-06      -7.17468575e-06 
      -4.18309339e-07       3.99387766e-06      -7.17730370e-06 
       1.17811801e-07       3.99649673e-06      -7.17730471e-06 
       4.17021570e-07       3.99649704e-06      -7.17468675e-06 
      -1.19099570e-07       3.99387797e-06      -7.17468575e-06 
      -4.18309339e-07       3.99387766e-06      -7.17730370e-06 
       1.17811801e-07       3.99649673e-06      -7.17730471e-06 
       4.17021570e-07       3.99649704e-06      -7.17468675e-06 
      -1.24277005e-07       4.41979120e-06      -7.93773045e-06 
      -4.36780187e-07       4.41979086e-06      -7.94048493e-06 
       1.22931366e-07       4.42254657e-06      -7.94048602e-06 
       4.35434549e-07       4.42254691e-06      -7.93773154e-06 
      -1.24277005e-07       4.41979120e-06      -7.93773045e-06 
      -4.36780187e-07       4.41979086e-06      -7.94048493e-06 
       1.22931366e-07       4.42254657e-06      -7.94048602e-06 
       4.35434549e-07       4.42254691e-06      -7.93773154e-06 
      -1.29309255e-07       4.86398118e-06      -8.73318934e-06 
      -4.54767006e-07       4.86398081e-06      -8.73608035e-06 
       1.27905475e-07       4.86687315e-06      -8.73608154e-06 
       4.53363226e-07       4.86687352e-06      -8.73319052e-06 
      -1.29309255e-07       4.86398118e-06      -8.73318934e-06 
      -4.54767007e-07       4.86398081e-06      -8.73608035e-06 
       1.27905474e-07       4.86687315e-06      -8.73608154e-06 
       4.53363226e-07       4.86687352e-06      -8.73319052e-06 
      -1.34195307e-07       5.32599325e-06      -9.56021153e-06 
      -4.72288598e-07       5.32599285e-06      -9.56322308e-06 
       1.32753541e-07       5.32900582e-06      -9.56322435e-06 
       4.70846832e-07       5.32900621e-06      -9.56021281e-06 
      -1.34195307e-07       5.32599325e-06      -9.56021153e-06 
      -4.72288598e-07       5.32599285e-06      -9.56322308e-06 
       1.32753541e-07       5.32900582e-06      -9.56322435e-06 
       4.70846832e-07       5.32900621e-06      -9.56021281e-06 
      -1.38954674e-07       5.80539339e-06      -1.04180011e-05 
      -4.89384148e-07       5.80539296e-06      -1.04211331e-05 
       1.37474536e-07       5.80852655e-06      -1.04211345e-05 
       4.87904011e-07       5.80852698e-06      -1.04180024e-05 
      -1.38954674e-07       5.80539339e-06      -1.04180011e-05 
      -4.89384148e-07       5.80539296e-06      -1.04211331e-05 
       1.37474536e-07       5.80852655e-06      -1.04211345e-05 
       4.87904011e-07       5.80852698e-06      -1.04180024e-05 
      -1.43587348e-07       6.30176471e-06      -1.13057876e-05 
      -5.06053653e-07       6.30176425e-06      -1.13090402e-05 
       1.42068463e-07       6.30501848e-06      -1.13090417e-05 
       5.04534768e-07       6.30501894e-06      -1.13057891e-05 
      -1.43587348e-07       6.30176471e-06      -1.13057876e-05 
      -5.06053653e-07       6.30176425e-06      -1.13090402e-05 
       1.42068463e-07       6.30501848e-06      -1.13090417e-05 
       5.04534768e-07       6.30501894e-06      -1.13057891e-05 
      -1.48093329e-07       6.81469034e-06      -1.22228010e-05 
      -5.22297110e-07       6.81468985e-06      -1.22261741e-05 
       1.46535325e-07       6.81806471e-06      -1.22261756e-05 
       5.20739105e-07       6.81806519e-06      -1.22228025e-05 
      -1.48093329e-07       6.81469034e-06      -1.22228010e-05 
      -5.22297110e-07       6.81468985e-06      -1.22261741e-05 
       1.46535325e-07       6.81806471e-06      -1.22261756e-05 
       5.20739105e-07       6.81806519e-06      -1.22228025e-05 
      -1.52472610e-07       7.34375338e-06      -1.31682708e-05 
      -5.38114511e-07       7.34375286e-06      -1.31717644e-05 
       1.50875129e-07       7.34724834e-06      -1.31717661e-05 
       5.36517031e-07       7.34724886e-06      -1.31682724e-05 
      -1.52472610e-07       7.34375338e-06      -1.31682708e-05 
      -5.38114511e-07       7.34375286e-06      -1.31717644e-05 
       1.50875129e-07       7.34724834e-06      -1.31717661e-05 
       5.36517031e-07       7.34724886e-06      -1.31682724e-05 
      -1.56725185e-07       7.88853694e-06      -1.41414268e-05 
      -5.53505854e-07       7.88853639e-06      -1.41450410e-05 
       1.55087879e-07       7.89215251e-06      -1.41450427e-05 
       5.51868548e-07       7.89215306e-06      -1.41414286e-05 
      -1.56725185e-07       7.88853694e-06      -1.41414268e-05 
      -5.53505854e-07       7.88853639e-06      -1.41450410e-05 
       1.55087879e-07       7.89215251e-06      -1.41450427e-05 
       5.51868548e-07       7.89215306e-06      -1.41414286e-05 
      -1.60851050e-07       8.44862415e-06      -1.51414988e-05 
      -5.68471132e-07       8.44862357e-06      -1.51452335e-05 
       1.59173580e-07       8.45236031e-06      -1.51452353e-05 
       5.66793662e-07       8.45236089e-06      -1.51415007e-05 
      -1.60851050e-07       8.44862415e-06      -1.51414988e-05 
      -5.68471132e-07       8.44862357e-06      -1.51452335e-05 
       1.59173580e-07       8.45236031e-06      -1.51452353e-05 
       5.66793662e-07       8.45236089e-06      -1.51415007e-05 
      -1.64850200e-07       9.02359810e-06      -1.61677165e-05 
      -5.83010340e-07       9.02359749e-06      -1.61715717e-05 
       1.63132237e-07       9.02745487e-06      -1.61715736e-05 
       5.81292378e-07       9.02745548e-06      -1.61677184e-05 
      -1.64850200e-07       9.02359810e-06      -1.61677165e-05 
      -5.83010340e-07       9.02359749e-06      -1.61715717e-05 
       1.63132237e-07       9.02745487e-06      -1.61715736e-05 
       5.81292378e-07       9.02745548e-06      -1.61677184e-05 
      -1.68722631e-07       9.61304192e-06      -1.72193095e-05 
      -5.97123477e-07       9.61304128e-06      -1.72232852e-05 
       1.66963855e-07       9.61701929e-06      -1.72232872e-05 
       5.95364699e-07       9.61701992e-06      -1.72193115e-05 
      -1.68722631e-07       9.61304192e-06      -1.72193095e-05 
      -5.97123477e-07       9.61304128e-06      -1.72232852e-05 
       1.66963855e-07       9.61701929e-06      -1.72232872e-05 
       5.95364699e-07       9.61701992e-06      -1.72193115e-05 
      -1.72468340e-07       1.02165387e-05      -1.82955076e-05 
      -6.10810535e-07       1.02165381e-05      -1.82996039e-05 
       1.70668438e-07       1.02206367e-05      -1.82996060e-05 
       6.09010632e-07       1.02206374e-05      -1.82955098e-05 
      -1.72468340e-07       1.02165387e-05      -1.82955076e-05 
      -6.10810534e-07       1.02165381e-05      -1.82996039e-05 
       1.70668438e-07       1.02206367e-05      -1.82996060e-05 
       6.09010631e-07       1.02206374e-05      -1.82955098e-05 
      -1.76089536e-07       1.08336887e-05      -1.93955661e-05 
      -6.24093409e-07       1.08336880e-05      -1.93997668e-05 
       1.74262012e-07       1.08378913e-05      -1.93997691e-05 
       6.22265885e-07       1.08378920e-05      -1.93955683e-05 
      -1.76089536e-07       1.08336887e-05      -1.93955661e-05 
      -6.24093409e-07       1.08336880e-05      -1.93997668e-05 
       1.74262012e-07       1.08378913e-05      -1.93997691e-05 
       6.22265885e-07       1.08378920e-05      -1.93955683e-05 
      -1.79602683e-07       1.14641129e-05      -2.05187954e-05 
      -6.37008385e-07       1.14641122e-05      -2.05231006e-05 
       1.77747172e-07       1.14684200e-05      -2.05231030e-05 
       6.35152873e-07       1.14684207e-05      -2.05187977e-05 
      -1.79602683e-07       1.14641129e-05      -2.05187954e-05 
      -6.37008385e-07       1.14641122e-05      -2.05231006e-05 
       1.77747172e-07       1.14684200e-05      -2.05231030e-05 
       6.35152873e-07       1.14684207e-05      -2.05187977e-05 
      -1.83007774e-07       1.21074493e-05      -2.16645322e-05 
      -6.49555456e-07       1.21074485e-05      -2.16689420e-05 
       1.81123922e-07       1.21118610e-05      -2.16689444e-05 
       6.47671603e-07       1.21118617e-05      -2.16645346e-05 
      -1.83007774e-07       1.21074493e-05      -2.16645322e-05 
      -6.49555456e-07       1.21074485e-05      -2.16689420e-05 
       1.81123922e-07       1.21118610e-05      -2.16689444e-05 
       6.47671603e-07       1.21118617e-05      -2.16645346e-05 
      -1.86304809e-07       1.27633360e-05      -2.28321132e-05 
      -6.61734618e-07       1.27633353e-05      -2.28366275e-05 
       1.84392267e-07       1.27678523e-05      -2.28366300e-05 
       6.59822076e-07       1.27678531e-05      -2.28321157e-05 
      -1.86304809e-07       1.27633360e-05      -2.28321132e-05 
      -6.61734618e-07       1.27633353e-05      -2.28366275e-05 
       1.84392267e-07       1.27678523e-05      -2.28366300e-05 
       6.59822076e-07       1.27678531e-05      -2.28321157e-05 
      -1.89493778e-07       1.34314113e-05      -2.40208751e-05 
      -6.73545866e-07       1.34314105e-05      -2.40254939e-05 
       1.87552211e-07       1.34360321e-05      -2.40254965e-05 
       6.71604299e-07       1.34360330e-05      -2.40208777e-05 
      -1.89493778e-07       1.34314113e-05      -2.40208751e-05 
      -6.73545866e-07       1.34314105e-05      -2.40254939e-05 
       1.87552211e-07       1.34360321e-05      -2.40254965e-05 
       6.71604299e-07       1.34360330e-05      -2.40208777e-05 
      -1.92574678e-07       1.41113132e-05      -2.52301546e-05 
      -6.84989195e-07       1.41113124e-05      -2.52348778e-05 
       1.90603761e-07       1.41160386e-05      -2.52348805e-05 
       6.83018278e-07       1.41160395e-05      -2.52301572e-05 
      -1.92574678e-07       1.41113132e-05      -2.52301546e-05 
      -6.84989195e-07       1.41113124e-05      -2.52348778e-05 
       1.90603761e-07       1.41160386e-05      -2.52348805e-05 
       6.83018278e-07       1.41160395e-05      -2.52301572e-05 
      -1.95547504e-07       1.48026799e-05      -2.64592882e-05 
      -6.96064599e-07       1.48026790e-05      -2.64641159e-05 
       1.93546922e-07       1.48075098e-05      -2.64641187e-05 
       6.94064017e-07       1.48075107e-05      -2.64592909e-05 
      -1.95547504e-07       1.48026799e-05      -2.64592882e-05 
      -6.96064599e-07       1.48026790e-05      -2.64641159e-05 
       1.93546922e-07       1.48075098e-05      -2.64641187e-05 
       6.94064017e-07       1.48075107e-05      -2.64592909e-05 
      -1.98412247e-07       1.55051494e-05      -2.77076127e-05 
      -7.06772072e-07       1.55051485e-05      -2.77125450e-05 
       1.96381699e-07       1.55100840e-05      -2.77125478e-05 
       7.04741524e-07       1.55100849e-05      -2.77076156e-05 
      -1.98412247e-07       1.55051494e-05      -2.77076127e-05 
      -7.06772072e-07       1.55051485e-05      -2.77125450e-05 