# vtk DataFile Version 2.0
./output/onsasExample_BladeCantileverBeamPitch_windVel3DDynamic 3D/onsasExample_BladeCantileverBeamPitch_windVel3DDynamic 3D_0167.vtk
ASCII
DATASET UNSTRUCTURED_GRID

POINTS 800 float
       1.964165e-23      -7.180703e-02      -7.180703e-02 
       5.526364e-23       7.180703e-02      -7.180703e-02 
      -1.964165e-23       7.180703e-02       7.180703e-02 
      -5.526364e-23      -7.180703e-02       7.180703e-02 
       2.000000e-01      -7.180702e-02      -7.180706e-02 
       2.000000e-01       7.180705e-02      -7.180706e-02 
       2.000000e-01       7.180705e-02       7.180701e-02 
       2.000000e-01      -7.180702e-02       7.180701e-02 
       2.000000e-01      -7.180702e-02      -7.180706e-02 
       2.000000e-01       7.180705e-02      -7.180706e-02 
       2.000000e-01       7.180705e-02       7.180701e-02 
       2.000000e-01      -7.180702e-02       7.180701e-02 
       4.000000e-01      -7.180698e-02      -7.180713e-02 
       3.999999e-01       7.180709e-02      -7.180713e-02 
       4.000000e-01       7.180709e-02       7.180693e-02 
       4.000001e-01      -7.180698e-02       7.180693e-02 
       4.000000e-01      -7.180698e-02      -7.180713e-02 
       3.999999e-01       7.180709e-02      -7.180713e-02 
       4.000000e-01       7.180709e-02       7.180693e-02 
       4.000001e-01      -7.180698e-02       7.180693e-02 
       6.000000e-01      -7.180691e-02      -7.180726e-02 
       5.999999e-01       7.180716e-02      -7.180726e-02 
       6.000000e-01       7.180716e-02       7.180681e-02 
       6.000001e-01      -7.180691e-02       7.180681e-02 
       6.000000e-01      -7.180691e-02      -7.180726e-02 
       5.999999e-01       7.180716e-02      -7.180726e-02 
       6.000000e-01       7.180716e-02       7.180681e-02 
       6.000001e-01      -7.180691e-02       7.180681e-02 
       8.000000e-01      -7.180682e-02      -7.180743e-02 
       7.999999e-01       7.180725e-02      -7.180743e-02 
       8.000000e-01       7.180725e-02       7.180664e-02 
       8.000001e-01      -7.180682e-02       7.180664e-02 
       8.000000e-01      -7.180682e-02      -7.180743e-02 
       7.999999e-01       7.180725e-02      -7.180743e-02 
       8.000000e-01       7.180725e-02       7.180664e-02 
       8.000001e-01      -7.180682e-02       7.180664e-02 
       1.000000e+00      -7.180670e-02      -7.180765e-02 
       9.999999e-01       7.180737e-02      -7.180765e-02 
       1.000000e+00       7.180737e-02       7.180642e-02 
       1.000000e+00      -7.180670e-02       7.180642e-02 
       1.000000e+00      -7.180670e-02      -7.180765e-02 
       9.999999e-01       7.180737e-02      -7.180765e-02 
       1.000000e+00       7.180737e-02       7.180642e-02 
       1.000000e+00      -7.180670e-02       7.180642e-02 
       1.200000e+00      -7.180655e-02      -7.180792e-02 
       1.200000e+00       7.180751e-02      -7.180792e-02 
       1.200000e+00       7.180751e-02       7.180615e-02 
       1.200000e+00      -7.180655e-02       7.180615e-02 
       1.200000e+00      -7.180655e-02      -7.180792e-02 
       1.200000e+00       7.180751e-02      -7.180792e-02 
       1.200000e+00       7.180751e-02       7.180615e-02 
       1.200000e+00      -7.180655e-02       7.180615e-02 
       1.400000e+00      -7.180638e-02      -7.180823e-02 
       1.400000e+00       7.180768e-02      -7.180823e-02 
       1.400000e+00       7.180768e-02       7.180584e-02 
       1.400000e+00      -7.180638e-02       7.180584e-02 
       1.400000e+00      -7.180638e-02      -7.180823e-02 
       1.400000e+00       7.180768e-02      -7.180823e-02 
       1.400000e+00       7.180768e-02       7.180584e-02 
       1.400000e+00      -7.180638e-02       7.180584e-02 
       1.600000e+00      -7.180619e-02      -7.180858e-02 
       1.600000e+00       7.180788e-02      -7.180858e-02 
       1.600000e+00       7.180788e-02       7.180548e-02 
       1.600000e+00      -7.180619e-02       7.180549e-02 
       1.600000e+00      -7.180619e-02      -7.180858e-02 
       1.600000e+00       7.180788e-02      -7.180858e-02 
       1.600000e+00       7.180788e-02       7.180548e-02 
       1.600000e+00      -7.180619e-02       7.180549e-02 
       1.800000e+00      -7.180597e-02      -7.180898e-02 
       1.800000e+00       7.180809e-02      -7.180898e-02 
       1.800000e+00       7.180809e-02       7.180509e-02 
       1.800000e+00      -7.180597e-02       7.180509e-02 
       1.800000e+00      -7.180597e-02      -7.180898e-02 
       1.800000e+00       7.180809e-02      -7.180898e-02 
       1.800000e+00       7.180809e-02       7.180509e-02 
       1.800000e+00      -7.180597e-02       7.180509e-02 
       2.000000e+00      -7.180573e-02      -7.180942e-02 
       2.000000e+00       7.180833e-02      -7.180942e-02 
       2.000000e+00       7.180833e-02       7.180465e-02 
       2.000000e+00      -7.180573e-02       7.180465e-02 
       2.000000e+00      -7.180573e-02      -7.180942e-02 
       2.000000e+00       7.180833e-02      -7.180942e-02 
       2.000000e+00       7.180833e-02       7.180465e-02 
       2.000000e+00      -7.180573e-02       7.180465e-02 
       2.200000e+00      -7.180547e-02      -7.180990e-02 
       2.200000e+00       7.180860e-02      -7.180990e-02 
       2.200000e+00       7.180860e-02       7.180417e-02 
       2.200000e+00      -7.180547e-02       7.180417e-02 
       2.200000e+00      -7.180547e-02      -7.180990e-02 
       2.200000e+00       7.180860e-02      -7.180990e-02 
       2.200000e+00       7.180860e-02       7.180417e-02 
       2.200000e+00      -7.180547e-02       7.180417e-02 
       2.400000e+00      -7.180519e-02      -7.181042e-02 
       2.400000e+00       7.180888e-02      -7.181042e-02 
       2.400000e+00       7.180888e-02       7.180364e-02 
       2.400000e+00      -7.180518e-02       7.180365e-02 
       2.400000e+00      -7.180519e-02      -7.181042e-02 
       2.400000e+00       7.180888e-02      -7.181042e-02 
       2.400000e+00       7.180888e-02       7.180364e-02 
       2.400000e+00      -7.180518e-02       7.180365e-02 
       2.600000e+00      -7.180488e-02      -7.181098e-02 
       2.600000e+00       7.180919e-02      -7.181098e-02 
       2.600000e+00       7.180919e-02       7.180308e-02 
       2.600000e+00      -7.180488e-02       7.180309e-02 
       2.600000e+00      -7.180488e-02      -7.181098e-02 
       2.600000e+00       7.180919e-02      -7.181098e-02 
       2.600000e+00       7.180919e-02       7.180308e-02 
       2.600000e+00      -7.180488e-02       7.180309e-02 
       2.800000e+00      -7.180455e-02      -7.181158e-02 
       2.800000e+00       7.180951e-02      -7.181158e-02 
       2.800000e+00       7.180951e-02       7.180249e-02 
       2.800000e+00      -7.180455e-02       7.180249e-02 
       2.800000e+00      -7.180455e-02      -7.181158e-02 
       2.800000e+00       7.180951e-02      -7.181158e-02 
       2.800000e+00       7.180951e-02       7.180249e-02 
       2.800000e+00      -7.180455e-02       7.180249e-02 
       3.000000e+00      -7.180421e-02      -7.181221e-02 
       3.000000e+00       7.180986e-02      -7.181222e-02 
       3.000000e+00       7.180986e-02       7.180185e-02 
       3.000000e+00      -7.180420e-02       7.180185e-02 
       3.000000e+00      -7.180421e-02      -7.181221e-02 
       3.000000e+00       7.180986e-02      -7.181222e-02 
       3.000000e+00       7.180986e-02       7.180185e-02 
       3.000000e+00      -7.180420e-02       7.180185e-02 
       3.200000e+00      -7.180384e-02      -7.181289e-02 
       3.200000e+00       7.181023e-02      -7.181289e-02 
       3.200000e+00       7.181023e-02       7.180118e-02 
       3.200000e+00      -7.180384e-02       7.180118e-02 
       3.200000e+00      -7.180384e-02      -7.181289e-02 
       3.200000e+00       7.181023e-02      -7.181289e-02 
       3.200000e+00       7.181023e-02       7.180118e-02 
       3.200000e+00      -7.180384e-02       7.180118e-02 
       3.400000e+00      -7.180345e-02      -7.181360e-02 
       3.400000e+00       7.181062e-02      -7.181360e-02 
       3.400000e+00       7.181062e-02       7.180047e-02 
       3.400000e+00      -7.180345e-02       7.180047e-02 
       3.400000e+00      -7.180345e-02      -7.181360e-02 
       3.400000e+00       7.181062e-02      -7.181360e-02 
       3.400000e+00       7.181062e-02       7.180047e-02 
       3.400000e+00      -7.180345e-02       7.180047e-02 
       3.600000e+00      -7.180304e-02      -7.181434e-02 
       3.600000e+00       7.181102e-02      -7.181434e-02 
       3.600000e+00       7.181102e-02       7.179972e-02 
       3.600000e+00      -7.180304e-02       7.179973e-02 
       3.600000e+00      -7.180304e-02      -7.181434e-02 
       3.600000e+00       7.181102e-02      -7.181434e-02 
       3.600000e+00       7.181102e-02       7.179972e-02 
       3.600000e+00      -7.180304e-02       7.179973e-02 
       3.800000e+00      -7.180262e-02      -7.181512e-02 
       3.800000e+00       7.181145e-02      -7.181512e-02 
       3.800000e+00       7.181145e-02       7.179895e-02 
       3.800000e+00      -7.180262e-02       7.179895e-02 
       3.800000e+00      -7.180262e-02      -7.181512e-02 
       3.800000e+00       7.181145e-02      -7.181512e-02 
       3.800000e+00       7.181145e-02       7.179895e-02 
       3.800000e+00      -7.180262e-02       7.179895e-02 
       4.000000e+00      -7.180218e-02      -7.181593e-02 
       4.000000e+00       7.181189e-02      -7.181593e-02 
       4.000000e+00       7.181189e-02       7.179814e-02 
       4.000000e+00      -7.180217e-02       7.179814e-02 
       4.000000e+00      -7.180218e-02      -7.181593e-02 
       4.000000e+00       7.181189e-02      -7.181593e-02 
       4.000000e+00       7.181189e-02       7.179814e-02 
       4.000000e+00      -7.180217e-02       7.179814e-02 
       4.200000e+00      -7.180171e-02      -7.181677e-02 
[...]
POINT_DATA       800 
VECTORS Displacements float
       1.96416511e-23      -1.38777878e-17       0.00000000e+00 
       5.52636352e-23       1.38777878e-17       0.00000000e+00 
      -1.96416511e-23       1.38777878e-17       0.00000000e+00 
      -5.52636352e-23      -1.38777878e-17       0.00000000e+00 
      -8.30697347e-09       1.37210560e-08      -2.52709061e-08 
      -2.80577761e-08       1.37210547e-08      -2.54222148e-08 
       8.22437574e-09       1.38723684e-08      -2.54222194e-08 
       2.79751783e-08       1.38723697e-08      -2.52709107e-08 
      -8.30697347e-09       1.37210560e-08      -2.52709061e-08 
      -2.80577761e-08       1.37210547e-08      -2.54222148e-08 
       8.22437574e-09       1.38723684e-08      -2.54222194e-08 
       2.79751783e-08       1.38723697e-08      -2.52709107e-08 
      -1.64464385e-08       5.46833898e-08      -1.00571614e-07 
      -5.55687472e-08       5.46833845e-08      -1.00874227e-07 
       1.62810883e-08       5.49860167e-08      -1.00874245e-07 
       5.54033970e-08       5.49860220e-08      -1.00571632e-07 
      -1.64464385e-08       5.46833898e-08      -1.00571614e-07 
      -5.55687472e-08       5.46833845e-08      -1.00874227e-07 
       1.62810883e-08       5.49860167e-08      -1.00874245e-07 
       5.54033970e-08       5.49860220e-08      -1.00571632e-07 
      -2.44183935e-08       1.22358785e-07      -2.24907141e-07 
      -8.25329119e-08       1.22358773e-07      -2.25361053e-07 
       2.41701391e-08       1.22812728e-07      -2.25361092e-07 
       8.22846573e-08       1.22812740e-07      -2.24907180e-07 
      -2.44183935e-08       1.22358785e-07      -2.24907141e-07 
      -8.25329119e-08       1.22358773e-07      -2.25361053e-07 
       2.41701391e-08       1.22812728e-07      -2.25361092e-07 
       8.22846573e-08       1.22812740e-07      -2.24907180e-07 
      -3.22228371e-08       2.16219025e-07      -3.97282502e-07 
      -1.08950269e-07       2.16219005e-07      -3.97887710e-07 
       3.18915299e-08       2.16824287e-07      -3.97887779e-07 
       1.08618961e-07       2.16824308e-07      -3.97282572e-07 
      -3.22228371e-08       2.16219025e-07      -3.97282502e-07 
      -1.08950269e-07       2.16219005e-07      -3.97887710e-07 
       3.18915299e-08       2.16824287e-07      -3.97887779e-07 
       1.08618961e-07       2.16824308e-07      -3.97282572e-07 
      -3.98597678e-08       3.35735894e-07      -6.16702716e-07 
      -1.34820816e-07       3.35735862e-07      -6.17459214e-07 
       3.94452619e-08       3.36492476e-07      -6.17459320e-07 
       1.34406310e-07       3.36492507e-07      -6.16702822e-07 
      -3.98597678e-08       3.35735894e-07      -6.16702716e-07 
      -1.34820816e-07       3.35735862e-07      -6.17459214e-07 
       3.94452619e-08       3.36492476e-07      -6.17459320e-07 
       1.34406310e-07       3.36492507e-07      -6.16702822e-07 
      -4.73291839e-08       4.80381175e-07      -8.82172798e-07 
      -1.60144552e-07       4.80381130e-07      -8.83080584e-07 
       4.68313373e-08       4.81289079e-07      -8.83080733e-07 
       1.59646705e-07       4.81289123e-07      -8.82172947e-07 
      -4.73291839e-08       4.80381175e-07      -8.82172798e-07 
      -1.60144552e-07       4.80381130e-07      -8.83080584e-07 
       4.68313373e-08       4.81289079e-07      -8.83080733e-07 
       1.59646705e-07       4.81289123e-07      -8.82172947e-07 
      -5.46310839e-08       6.49626651e-07      -1.19269777e-06 
      -1.84921475e-07       6.49626592e-07      -1.19375684e-06 
       5.40497567e-08       6.50685879e-07      -1.19375703e-06 
       1.84340148e-07       6.50685938e-07      -1.19269796e-06 
      -5.46310839e-08       6.49626651e-07      -1.19269777e-06 
      -1.84921475e-07       6.49626592e-07      -1.19375684e-06 
       5.40497567e-08       6.50685879e-07      -1.19375703e-06 
       1.84340148e-07       6.50685938e-07      -1.19269796e-06 
      -6.17654661e-08       8.42944108e-07      -1.54728263e-06 
      -2.09151584e-07       8.42944032e-07      -1.54849298e-06 
       6.11005222e-08       8.44154660e-07      -1.54849324e-06 
       2.08486640e-07       8.44154736e-07      -1.54728289e-06 
      -6.17654661e-08       8.42944108e-07      -1.54728263e-06 
      -2.09151584e-07       8.42944032e-07      -1.54849298e-06 
       6.11005222e-08       8.44154660e-07      -1.54849324e-06 
       2.08486640e-07       8.44154736e-07      -1.54728289e-06 
      -6.87323294e-08       1.05980533e-06      -1.94493242e-06 
      -2.32834878e-07       1.05980523e-06      -1.94629405e-06 
       6.79836354e-08       1.06116721e-06      -1.94629436e-06 
       2.32086184e-07       1.06116730e-06      -1.94493274e-06 
      -6.87323294e-08       1.05980533e-06      -1.94493242e-06 
      -2.32834878e-07       1.05980523e-06      -1.94629405e-06 
       6.79836354e-08       1.06116721e-06      -1.94629436e-06 
       2.32086184e-07       1.06116730e-06      -1.94493274e-06 
      -7.55316720e-08       1.29968209e-06      -2.38465214e-06 
      -2.55971354e-07       1.29968198e-06      -2.38616505e-06 
       7.46990976e-08       1.30119530e-06      -2.38616543e-06 
       2.55138779e-07       1.30119541e-06      -2.38465252e-06 
      -7.55316720e-08       1.29968209e-06      -2.38465214e-06 
      -2.55971354e-07       1.29968198e-06      -2.38616505e-06 
       7.46990976e-08       1.30119530e-06      -2.38616543e-06 
       2.55138779e-07       1.30119541e-06      -2.38465252e-06 
      -8.21579560e-08       1.56206308e-06      -2.86547168e-06 
      -2.78574816e-07       1.56206295e-06      -2.86711985e-06 
       8.12701586e-08       1.56371162e-06      -2.86712030e-06 
       2.77687019e-07       1.56371175e-06      -2.86547213e-06 
      -8.21579560e-08       1.56206308e-06      -2.86547168e-06 
      -2.78574816e-07       1.56206295e-06      -2.86711985e-06 
       8.12701586e-08       1.56371162e-06      -2.86712030e-06 
       2.77687019e-07       1.56371175e-06      -2.86547213e-06 
      -8.86356490e-08       1.84645755e-06      -3.38647642e-06 
      -3.00689780e-07       1.84645739e-06      -3.38825987e-06 
       8.76922899e-08       1.84824141e-06      -3.38826039e-06 
       2.99746421e-07       1.84824157e-06      -3.38647695e-06 
      -8.86356490e-08       1.84645755e-06      -3.38647642e-06 
      -3.00689780e-07       1.84645739e-06      -3.38825987e-06 
       8.76922899e-08       1.84824141e-06      -3.38826039e-06 
       2.99746421e-07       1.84824157e-06      -3.38647695e-06 
      -9.49647485e-08       2.15239213e-06      -3.94677869e-06 
      -3.22316243e-07       2.15239195e-06      -3.94869740e-06 
       9.39654941e-08       2.15431132e-06      -3.94869800e-06 
       3.21316989e-07       2.15431150e-06      -3.94677929e-06 
      -9.49647485e-08       2.15239213e-06      -3.94677869e-06 
      -3.22316243e-07       2.15239195e-06      -3.94869740e-06 
       9.39654941e-08       2.15431132e-06      -3.94869800e-06 
       3.21316989e-07       2.15431150e-06      -3.94677929e-06 
      -1.01145250e-07       2.47939346e-06      -4.54549077e-06 
      -3.43454201e-07       2.47939326e-06      -4.54754475e-06 
       1.00089776e-07       2.48144798e-06      -4.54754543e-06 
       3.42398727e-07       2.48144819e-06      -4.54549146e-06 
      -1.01145250e-07       2.47939346e-06      -4.54549077e-06 
      -3.43454201e-07       2.47939326e-06      -4.54754475e-06 
       1.00089776e-07       2.48144798e-06      -4.54754543e-06 
       3.42398727e-07       2.48144819e-06      -4.54549146e-06 
      -1.07177149e-07       2.82698818e-06      -5.18172498e-06 
      -3.64103650e-07       2.82698796e-06      -5.18391422e-06 
       1.06065137e-07       2.82917804e-06      -5.18391499e-06 
       3.62991639e-07       2.82917826e-06      -5.18172575e-06 
      -1.07177149e-07       2.82698818e-06      -5.18172498e-06 
      -3.64103650e-07       2.82698796e-06      -5.18391422e-06 
       1.06065137e-07       2.82917804e-06      -5.18391499e-06 
       3.62991639e-07       2.82917826e-06      -5.18172575e-06 
      -1.13060444e-07       3.19470293e-06      -5.85459362e-06 
      -3.84264588e-07       3.19470268e-06      -5.85691812e-06 
       1.11891583e-07       3.19702812e-06      -5.85691898e-06 
       3.83095727e-07       3.19702837e-06      -5.85459448e-06 
      -1.13060444e-07       3.19470293e-06      -5.85459362e-06 
      -3.84264588e-07       3.19470268e-06      -5.85691812e-06 
       1.11891583e-07       3.19702812e-06      -5.85691898e-06 
       3.83095727e-07       3.19702837e-06      -5.85459448e-06 
      -1.18795128e-07       3.58206435e-06      -6.56320900e-06 
      -4.03937008e-07       3.58206407e-06      -6.56566876e-06 
       1.17569118e-07       3.58452486e-06      -6.56566970e-06 
       4.02710997e-07       3.58452515e-06      -6.56320994e-06 
      -1.18795128e-07       3.58206435e-06      -6.56320900e-06 
      -4.03937008e-07       3.58206407e-06      -6.56566876e-06 
       1.17569118e-07       3.58452486e-06      -6.56566970e-06 
       4.02710997e-07       3.58452515e-06      -6.56320994e-06 
      -1.24381200e-07       3.98859907e-06      -7.30668341e-06 
      -4.23120909e-07       3.98859876e-06      -7.30927843e-06 
       1.23097745e-07       3.99119492e-06      -7.30927947e-06 
       4.21837453e-07       3.99119523e-06      -7.30668445e-06 
      -1.24381200e-07       3.98859907e-06      -7.30668341e-06 
      -4.23120909e-07       3.98859876e-06      -7.30927843e-06 
       1.23097745e-07       3.99119492e-06      -7.30927947e-06 
       4.21837453e-07       3.99119523e-06      -7.30668445e-06 
      -1.29818656e-07       4.41383373e-06      -8.08412917e-06 
      -4.41816286e-07       4.41383339e-06      -8.08685944e-06 
       1.28477467e-07       4.41656491e-06      -8.08686058e-06 
       4.40475097e-07       4.41656525e-06      -8.08413030e-06 
      -1.29818656e-07       4.41383373e-06      -8.08412917e-06 
      -4.41816286e-07       4.41383339e-06      -8.08685944e-06 
       1.28477467e-07       4.41656491e-06      -8.08686058e-06 
       4.40475097e-07       4.41656525e-06      -8.08413030e-06 
      -1.35107491e-07       4.85729498e-06      -8.89465857e-06 
      -4.60023136e-07       4.85729461e-06      -8.89752411e-06 
       1.33708289e-07       4.86016149e-06      -8.89752533e-06 
       4.58623933e-07       4.86016186e-06      -8.89465980e-06 
      -1.35107491e-07       4.85729498e-06      -8.89465857e-06 
      -4.60023136e-07       4.85729461e-06      -8.89752411e-06 
       1.33708289e-07       4.86016149e-06      -8.89752533e-06 
       4.58623933e-07       4.86016186e-06      -8.89465980e-06 
      -1.40247062e-07       5.31852653e-06      -9.73740980e-06 
      -4.77760511e-07       5.31852614e-06      -9.74039460e-06 
       1.38809909e-07       5.32151238e-06      -9.74039592e-06 
       4.76323358e-07       5.32151278e-06      -9.73741113e-06 
      -1.40247062e-07       5.31852653e-06      -9.73740980e-06 
      -4.77760511e-07       5.31852614e-06      -9.74039460e-06 
       1.38809909e-07       5.32151238e-06      -9.74039592e-06 
       4.76323358e-07       5.32151278e-06      -9.73741113e-06 
      -1.45257400e-07       5.79709309e-06      -1.06115779e-05 
      -4.95068544e-07       5.79709266e-06      -1.06146819e-05 
       1.43781897e-07       5.80019828e-06      -1.06146834e-05 
       4.93593042e-07       5.80019871e-06      -1.06115793e-05 
      -1.45257400e-07       5.79709309e-06      -1.06115779e-05 
      -4.95068544e-07       5.79709266e-06      -1.06146819e-05 
       1.43781897e-07       5.80019828e-06      -1.06146834e-05 
       4.93593042e-07       5.80019871e-06      -1.06115793e-05 
      -1.50138498e-07       6.29257671e-06      -1.15163844e-05 
      -5.11947230e-07       6.29257625e-06      -1.15196077e-05 
       1.48624260e-07       6.29580124e-06      -1.15196092e-05 
       5.10432992e-07       6.29580170e-06      -1.15163859e-05 
      -1.50138498e-07       6.29257671e-06      -1.15163844e-05 
      -5.11947230e-07       6.29257625e-06      -1.15196077e-05 
       1.48624260e-07       6.29580124e-06      -1.15196092e-05 
       5.10432992e-07       6.29580170e-06      -1.15163859e-05 
      -1.54890355e-07       6.80455945e-06      -1.24510509e-05 
      -5.28396567e-07       6.80455897e-06      -1.24543934e-05 
       1.53336997e-07       6.80790333e-06      -1.24543951e-05 
       5.26843209e-07       6.80790381e-06      -1.24510525e-05 
      -1.54890355e-07       6.80455945e-06      -1.24510509e-05 
      -5.28396567e-07       6.80455897e-06      -1.24543934e-05 
       1.53336997e-07       6.80790333e-06      -1.24543951e-05 
       5.26843209e-07       6.80790381e-06      -1.24510525e-05 
      -1.59512963e-07       7.33262338e-06      -1.34147989e-05 
      -5.44416545e-07       7.33262287e-06      -1.34182607e-05 
       1.57920119e-07       7.33608660e-06      -1.34182624e-05 
       5.42823701e-07       7.33608711e-06      -1.34148006e-05 
      -1.59512963e-07       7.33262338e-06      -1.34147989e-05 
      -5.44416545e-07       7.33262287e-06      -1.34182607e-05 
       1.57920119e-07       7.33608660e-06      -1.34182624e-05 
       5.42823701e-07       7.33608711e-06      -1.34148006e-05 
      -1.64006319e-07       7.87635056e-06      -1.44068500e-05 
      -5.60007162e-07       7.87635002e-06      -1.44104311e-05 
       1.62373627e-07       7.87993312e-06      -1.44104329e-05 
       5.58374471e-07       7.87993367e-06      -1.44068518e-05 
      -1.64006319e-07       7.87635056e-06      -1.44068500e-05 
      -5.60007162e-07       7.87635002e-06      -1.44104311e-05 
       1.62373627e-07       7.87993312e-06      -1.44104329e-05 
       5.58374471e-07       7.87993367e-06      -1.44068518e-05 
      -1.68370416e-07       8.43532305e-06      -1.54264257e-05 
      -5.75168412e-07       8.43532248e-06      -1.54301261e-05 
       1.66697529e-07       8.43902495e-06      -1.54301280e-05 
       5.73495525e-07       8.43902553e-06      -1.54264276e-05 
      -1.68370416e-07       8.43532305e-06      -1.54264257e-05 
      -5.75168412e-07       8.43532248e-06      -1.54301261e-05 
       1.66697529e-07       8.43902495e-06      -1.54301280e-05 
       5.73495525e-07       8.43902553e-06      -1.54264276e-05 
      -1.72605250e-07       9.00912292e-06      -1.64727477e-05 
      -5.89900290e-07       9.00912231e-06      -1.64765673e-05 
       1.70891828e-07       9.01294416e-06      -1.64765693e-05 
       5.88186868e-07       9.01294477e-06      -1.64727497e-05 
      -1.72605250e-07       9.00912292e-06      -1.64727477e-05 
      -5.89900290e-07       9.00912231e-06      -1.64765673e-05 
       1.70891828e-07       9.01294416e-06      -1.64765693e-05 
       5.88186868e-07       9.01294477e-06      -1.64727497e-05 
      -1.76710818e-07       9.59733222e-06      -1.75450374e-05 
      -6.04202794e-07       9.59733159e-06      -1.75489763e-05 
       1.74956528e-07       9.60127280e-06      -1.75489785e-05 
       6.02448504e-07       9.60127344e-06      -1.75450396e-05 
      -1.76710818e-07       9.59733222e-06      -1.75450374e-05 
      -6.04202794e-07       9.59733159e-06      -1.75489763e-05 
       1.74956528e-07       9.60127280e-06      -1.75489785e-05 
       6.02448504e-07       9.60127344e-06      -1.75450396e-05 
      -1.80687111e-07       1.01995330e-05      -1.86425165e-05 
      -6.18075915e-07       1.01995324e-05      -1.86465747e-05 
       1.78891636e-07       1.02035929e-05      -1.86465769e-05 
       6.16280439e-07       1.02035936e-05      -1.86425187e-05 
      -1.80687111e-07       1.01995330e-05      -1.86425165e-05 
      -6.18075915e-07       1.01995324e-05      -1.86465747e-05 
       1.78891636e-07       1.02035929e-05      -1.86465769e-05 
       6.16280439e-07       1.02035936e-05      -1.86425187e-05 
      -1.84537026e-07       1.08153246e-05      -1.97644329e-05 
      -6.31542456e-07       1.08153239e-05      -1.97685943e-05 
       1.82713854e-07       1.08194879e-05      -1.97685967e-05 
       6.29719284e-07       1.08194886e-05      -1.97644352e-05 
      -1.84537026e-07       1.08153246e-05      -1.97644329e-05 
      -6.31542456e-07       1.08153239e-05      -1.97685943e-05 
       1.82713854e-07       1.08194879e-05      -1.97685967e-05 
       6.29719284e-07       1.08194886e-05      -1.97644352e-05 
      -1.88277003e-07       1.14443274e-05      -2.09100915e-05 
      -6.44638971e-07       1.14443267e-05      -2.09143562e-05 
       1.86425757e-07       1.14485940e-05      -2.09143586e-05 
       6.42787724e-07       1.14485948e-05      -2.09100939e-05 
      -1.88277003e-07       1.14443274e-05      -2.09100915e-05 
      -6.44638971e-07       1.14443267e-05      -2.09143562e-05 
       1.86425757e-07       1.14485940e-05      -2.09143586e-05 
       6.42787724e-07       1.14485948e-05      -2.09100939e-05 
      -1.91907038e-07       1.20861792e-05      -2.20788234e-05 
      -6.57365455e-07       1.20861784e-05      -2.20831914e-05 
       1.90027350e-07       1.20905492e-05      -2.20831939e-05 
       6.55485769e-07       1.20905499e-05      -2.20788259e-05 
      -1.91907038e-07       1.20861792e-05      -2.20788234e-05 
      -6.57365455e-07       1.20861784e-05      -2.20831914e-05 
       1.90027350e-07       1.20905492e-05      -2.20831939e-05 
       6.55485769e-07       1.20905499e-05      -2.20788259e-05 
      -1.95427126e-07       1.27405178e-05      -2.32699596e-05 
      -6.69721906e-07       1.27405170e-05      -2.32744309e-05 
       1.93518639e-07       1.27449912e-05      -2.32744335e-05 
       6.67813420e-07       1.27449919e-05      -2.32699622e-05 
      -1.95427126e-07       1.27405178e-05      -2.32699596e-05 
      -6.69721906e-07       1.27405170e-05      -2.32744309e-05 
       1.93518639e-07       1.27449912e-05      -2.32744335e-05 
       6.67813420e-07       1.27449919e-05      -2.32699622e-05 
      -1.98837263e-07       1.34069810e-05      -2.44828313e-05 
      -6.81708316e-07       1.34069802e-05      -2.44874059e-05 
       1.96899629e-07       1.34115577e-05      -2.44874086e-05 
       6.79770683e-07       1.34115585e-05      -2.44828340e-05 
      -1.98837263e-07       1.34069810e-05      -2.44828313e-05 
      -6.81708316e-07       1.34069802e-05      -2.44874059e-05 
       1.96899629e-07       1.34115577e-05      -2.44874086e-05 
       6.79770683e-07       1.34115585e-05      -2.44828340e-05 
      -2.02137441e-07       1.40852066e-05      -2.57167695e-05 
      -6.93324681e-07       1.40852057e-05      -2.57214474e-05 
       2.00170326e-07       1.40898867e-05      -2.57214502e-05 
       6.91357565e-07       1.40898875e-05      -2.57167723e-05 
      -2.02137441e-07       1.40852066e-05      -2.57167695e-05 
      -6.93324681e-07       1.40852057e-05      -2.57214474e-05 
       2.00170326e-07       1.40898867e-05      -2.57214502e-05 
       6.91357565e-07       1.40898875e-05      -2.57167723e-05 
      -2.05327657e-07       1.47748324e-05      -2.69711052e-05 
      -7.04570994e-07       1.47748315e-05      -2.69758864e-05 
       2.03330732e-07       1.47796158e-05      -2.69758893e-05 
       7.02574070e-07       1.47796167e-05      -2.69711081e-05 
      -2.05327657e-07       1.47748324e-05      -2.69711052e-05 
      -7.04570994e-07       1.47748315e-05      -2.69758864e-05 
       2.03330732e-07       1.47796158e-05      -2.69758893e-05 
       7.02574070e-07       1.47796167e-05      -2.69711081e-05 
      -2.08407902e-07       1.54754962e-05      -2.82451696e-05 
      -7.15447250e-07       1.54754953e-05      -2.82500541e-05 
       2.06380858e-07       1.54803830e-05      -2.82500571e-05 
       7.13420206e-07       1.54803839e-05      -2.82451726e-05 
      -2.08407902e-07       1.54754962e-05      -2.82451696e-05 
      -7.15447250e-07       1.54754953e-05      -2.82500541e-05 