# vtk DataFile Version 2.0
./output/onsasExample_BladeCantileverBeamPitch_windVel3DDynamic 3D/onsasExample_BladeCantileverBeamPitch_windVel3DDynamic 3D_0398.vtk
ASCII
DATASET UNSTRUCTURED_GRID

POINTS 800 float
      -6.613561e-24      -7.180703e-02      -7.180703e-02 
      -3.646357e-23       7.180703e-02      -7.180703e-02 
       6.613561e-24       7.180703e-02       7.180703e-02 
       3.646357e-23      -7.180703e-02       7.180703e-02 
       2.000000e-01      -7.180702e-02      -7.180706e-02 
       2.000000e-01       7.180705e-02      -7.180706e-02 
       2.000000e-01       7.180705e-02       7.180700e-02 
       2.000000e-01      -7.180702e-02       7.180700e-02 
       2.000000e-01      -7.180702e-02      -7.180706e-02 
       2.000000e-01       7.180705e-02      -7.180706e-02 
       2.000000e-01       7.180705e-02       7.180700e-02 
       2.000000e-01      -7.180702e-02       7.180700e-02 
       4.000000e-01      -7.180698e-02      -7.180715e-02 
       3.999999e-01       7.180709e-02      -7.180715e-02 
       4.000000e-01       7.180709e-02       7.180692e-02 
       4.000001e-01      -7.180698e-02       7.180692e-02 
       4.000000e-01      -7.180698e-02      -7.180715e-02 
       3.999999e-01       7.180709e-02      -7.180715e-02 
       4.000000e-01       7.180709e-02       7.180692e-02 
       4.000001e-01      -7.180698e-02       7.180692e-02 
       6.000000e-01      -7.180691e-02      -7.180729e-02 
       5.999999e-01       7.180715e-02      -7.180729e-02 
       6.000000e-01       7.180716e-02       7.180678e-02 
       6.000001e-01      -7.180691e-02       7.180678e-02 
       6.000000e-01      -7.180691e-02      -7.180729e-02 
       5.999999e-01       7.180715e-02      -7.180729e-02 
       6.000000e-01       7.180716e-02       7.180678e-02 
       6.000001e-01      -7.180691e-02       7.180678e-02 
       8.000000e-01      -7.180682e-02      -7.180749e-02 
       7.999999e-01       7.180725e-02      -7.180749e-02 
       8.000000e-01       7.180725e-02       7.180658e-02 
       8.000001e-01      -7.180682e-02       7.180658e-02 
       8.000000e-01      -7.180682e-02      -7.180749e-02 
       7.999999e-01       7.180725e-02      -7.180749e-02 
       8.000000e-01       7.180725e-02       7.180658e-02 
       8.000001e-01      -7.180682e-02       7.180658e-02 
       9.999999e-01      -7.180670e-02      -7.180774e-02 
       9.999999e-01       7.180737e-02      -7.180774e-02 
       1.000000e+00       7.180737e-02       7.180633e-02 
       1.000000e+00      -7.180670e-02       7.180633e-02 
       9.999999e-01      -7.180670e-02      -7.180774e-02 
       9.999999e-01       7.180737e-02      -7.180774e-02 
       1.000000e+00       7.180737e-02       7.180633e-02 
       1.000000e+00      -7.180670e-02       7.180633e-02 
       1.200000e+00      -7.180656e-02      -7.180804e-02 
       1.200000e+00       7.180751e-02      -7.180804e-02 
       1.200000e+00       7.180751e-02       7.180602e-02 
       1.200000e+00      -7.180655e-02       7.180602e-02 
       1.200000e+00      -7.180656e-02      -7.180804e-02 
       1.200000e+00       7.180751e-02      -7.180804e-02 
       1.200000e+00       7.180751e-02       7.180602e-02 
       1.200000e+00      -7.180655e-02       7.180602e-02 
       1.400000e+00      -7.180639e-02      -7.180840e-02 
       1.400000e+00       7.180768e-02      -7.180840e-02 
       1.400000e+00       7.180768e-02       7.180566e-02 
       1.400000e+00      -7.180639e-02       7.180567e-02 
       1.400000e+00      -7.180639e-02      -7.180840e-02 
       1.400000e+00       7.180768e-02      -7.180840e-02 
       1.400000e+00       7.180768e-02       7.180566e-02 
       1.400000e+00      -7.180639e-02       7.180567e-02 
       1.600000e+00      -7.180619e-02      -7.180881e-02 
       1.600000e+00       7.180787e-02      -7.180881e-02 
       1.600000e+00       7.180787e-02       7.180526e-02 
       1.600000e+00      -7.180619e-02       7.180526e-02 
       1.600000e+00      -7.180619e-02      -7.180881e-02 
       1.600000e+00       7.180787e-02      -7.180881e-02 
       1.600000e+00       7.180787e-02       7.180526e-02 
       1.600000e+00      -7.180619e-02       7.180526e-02 
       1.800000e+00      -7.180598e-02      -7.180926e-02 
       1.800000e+00       7.180809e-02      -7.180927e-02 
       1.800000e+00       7.180809e-02       7.180480e-02 
       1.800000e+00      -7.180598e-02       7.180480e-02 
       1.800000e+00      -7.180598e-02      -7.180926e-02 
       1.800000e+00       7.180809e-02      -7.180927e-02 
       1.800000e+00       7.180809e-02       7.180480e-02 
       1.800000e+00      -7.180598e-02       7.180480e-02 
       2.000000e+00      -7.180574e-02      -7.180977e-02 
       2.000000e+00       7.180833e-02      -7.180977e-02 
       2.000000e+00       7.180833e-02       7.180429e-02 
       2.000000e+00      -7.180574e-02       7.180430e-02 
       2.000000e+00      -7.180574e-02      -7.180977e-02 
       2.000000e+00       7.180833e-02      -7.180977e-02 
       2.000000e+00       7.180833e-02       7.180429e-02 
       2.000000e+00      -7.180574e-02       7.180430e-02 
       2.200000e+00      -7.180548e-02      -7.181032e-02 
       2.200000e+00       7.180859e-02      -7.181033e-02 
       2.200000e+00       7.180859e-02       7.180374e-02 
       2.200000e+00      -7.180548e-02       7.180374e-02 
       2.200000e+00      -7.180548e-02      -7.181032e-02 
       2.200000e+00       7.180859e-02      -7.181033e-02 
       2.200000e+00       7.180859e-02       7.180374e-02 
       2.200000e+00      -7.180548e-02       7.180374e-02 
       2.400000e+00      -7.180520e-02      -7.181092e-02 
       2.400000e+00       7.180887e-02      -7.181093e-02 
       2.400000e+00       7.180887e-02       7.180314e-02 
       2.400000e+00      -7.180519e-02       7.180314e-02 
       2.400000e+00      -7.180520e-02      -7.181092e-02 
       2.400000e+00       7.180887e-02      -7.181093e-02 
       2.400000e+00       7.180887e-02       7.180314e-02 
       2.400000e+00      -7.180519e-02       7.180314e-02 
       2.600000e+00      -7.180489e-02      -7.181157e-02 
       2.600000e+00       7.180917e-02      -7.181157e-02 
       2.600000e+00       7.180918e-02       7.180249e-02 
       2.600000e+00      -7.180489e-02       7.180250e-02 
       2.600000e+00      -7.180489e-02      -7.181157e-02 
       2.600000e+00       7.180917e-02      -7.181157e-02 
       2.600000e+00       7.180918e-02       7.180249e-02 
       2.600000e+00      -7.180489e-02       7.180250e-02 
       2.800000e+00      -7.180457e-02      -7.181226e-02 
       2.800000e+00       7.180950e-02      -7.181226e-02 
       2.800000e+00       7.180950e-02       7.180180e-02 
       2.800000e+00      -7.180457e-02       7.180180e-02 
       2.800000e+00      -7.180457e-02      -7.181226e-02 
       2.800000e+00       7.180950e-02      -7.181226e-02 
       2.800000e+00       7.180950e-02       7.180180e-02 
       2.800000e+00      -7.180457e-02       7.180180e-02 
       3.000000e+00      -7.180422e-02      -7.181300e-02 
       3.000000e+00       7.180984e-02      -7.181300e-02 
       3.000000e+00       7.180985e-02       7.180107e-02 
       3.000000e+00      -7.180422e-02       7.180107e-02 
       3.000000e+00      -7.180422e-02      -7.181300e-02 
       3.000000e+00       7.180984e-02      -7.181300e-02 
       3.000000e+00       7.180985e-02       7.180107e-02 
       3.000000e+00      -7.180422e-02       7.180107e-02 
       3.200000e+00      -7.180386e-02      -7.181377e-02 
       3.200000e+00       7.181021e-02      -7.181378e-02 
       3.200000e+00       7.181021e-02       7.180029e-02 
       3.200000e+00      -7.180385e-02       7.180029e-02 
       3.200000e+00      -7.180386e-02      -7.181377e-02 
       3.200000e+00       7.181021e-02      -7.181378e-02 
       3.200000e+00       7.181021e-02       7.180029e-02 
       3.200000e+00      -7.180385e-02       7.180029e-02 
       3.400000e+00      -7.180347e-02      -7.181459e-02 
       3.400000e+00       7.181060e-02      -7.181460e-02 
       3.400000e+00       7.181060e-02       7.179947e-02 
       3.400000e+00      -7.180347e-02       7.179947e-02 
       3.400000e+00      -7.180347e-02      -7.181459e-02 
       3.400000e+00       7.181060e-02      -7.181460e-02 
       3.400000e+00       7.181060e-02       7.179947e-02 
       3.400000e+00      -7.180347e-02       7.179947e-02 
       3.600000e+00      -7.180307e-02      -7.181545e-02 
       3.600000e+00       7.181100e-02      -7.181546e-02 
       3.600000e+00       7.181100e-02       7.179861e-02 
       3.600000e+00      -7.180306e-02       7.179861e-02 
       3.600000e+00      -7.180307e-02      -7.181545e-02 
       3.600000e+00       7.181100e-02      -7.181546e-02 
       3.600000e+00       7.181100e-02       7.179861e-02 
       3.600000e+00      -7.180306e-02       7.179861e-02 
       3.800000e+00      -7.180264e-02      -7.181635e-02 
       3.800000e+00       7.181142e-02      -7.181636e-02 
       3.800000e+00       7.181143e-02       7.179771e-02 
       3.800000e+00      -7.180264e-02       7.179771e-02 
       3.800000e+00      -7.180264e-02      -7.181635e-02 
       3.800000e+00       7.181142e-02      -7.181636e-02 
       3.800000e+00       7.181143e-02       7.179771e-02 
       3.800000e+00      -7.180264e-02       7.179771e-02 
       4.000000e+00      -7.180220e-02      -7.181729e-02 
       3.999999e+00       7.181186e-02      -7.181730e-02 
       4.000000e+00       7.181187e-02       7.179677e-02 
       4.000001e+00      -7.180220e-02       7.179677e-02 
       4.000000e+00      -7.180220e-02      -7.181729e-02 
       3.999999e+00       7.181186e-02      -7.181730e-02 
       4.000000e+00       7.181187e-02       7.179677e-02 
       4.000001e+00      -7.180220e-02       7.179677e-02 
       4.200000e+00      -7.180174e-02      -7.181827e-02 
[...]
POINT_DATA       800 
VECTORS Displacements float
      -6.61356077e-24      -1.38777878e-17       0.00000000e+00 
      -3.64635675e-23       0.00000000e+00      -1.38777878e-17 
       6.61356077e-24       1.38777878e-17       0.00000000e+00 
       3.64635675e-23       0.00000000e+00       1.38777878e-17 
      -1.09632305e-08       1.36495218e-08      -2.88981087e-08 
      -3.06118645e-08       1.36495205e-08      -2.90500311e-08 
       1.08720285e-08       1.38014486e-08      -2.90500371e-08 
       3.05206624e-08       1.38014499e-08      -2.88981147e-08 
      -1.09632305e-08       1.36495218e-08      -2.88981087e-08 
      -3.06118645e-08       1.36495205e-08      -2.90500311e-08 
       1.08720285e-08       1.38014486e-08      -2.90500371e-08 
       3.05206624e-08       1.38014499e-08      -2.88981147e-08 
      -2.17349800e-08       5.43985540e-08      -1.15037178e-07 
      -6.06536914e-08       5.43985488e-08      -1.15341018e-07 
       2.15523840e-08       5.47024105e-08      -1.15341041e-07 
       6.04710955e-08       5.47024157e-08      -1.15037202e-07 
      -2.17349800e-08       5.43985540e-08      -1.15037178e-07 
      -6.06536914e-08       5.43985488e-08      -1.15341018e-07 
       2.15523840e-08       5.47024105e-08      -1.15341041e-07 
       6.04710955e-08       5.47024157e-08      -1.15037202e-07 
      -3.23152466e-08       1.21719911e-07      -2.57356435e-07 
      -9.01254791e-08       1.21719899e-07      -2.57812186e-07 
       3.20410686e-08       1.22175700e-07      -2.57812238e-07 
       8.98513011e-08       1.22175712e-07      -2.57356487e-07 
      -3.23152466e-08       1.21719911e-07      -2.57356435e-07 
      -9.01254791e-08       1.21719899e-07      -2.57812186e-07 
       3.20410686e-08       1.22175700e-07      -2.57812238e-07 
       8.98513011e-08       1.22175712e-07      -2.57356487e-07 
      -4.27040284e-08       2.15086407e-07      -4.54795104e-07 
      -1.19027226e-07       2.15086387e-07      -4.55402763e-07 
       4.23380837e-08       2.15694131e-07      -4.55402853e-07 
       1.18661281e-07       2.15694151e-07      -4.54795195e-07 
      -4.27040284e-08       2.15086407e-07      -4.54795104e-07 
      -1.19027226e-07       2.15086387e-07      -4.55402763e-07 
       4.23380837e-08       2.15694131e-07      -4.55402853e-07 
       1.18661281e-07       2.15694151e-07      -4.54795195e-07 
      -5.29013238e-08       3.33970857e-07      -7.06292413e-07 
      -1.47358929e-07       3.33970826e-07      -7.07051974e-07 
       5.24434316e-08       3.34730518e-07      -7.07052113e-07 
       1.46901037e-07       3.34730549e-07      -7.06292552e-07 
      -5.29013238e-08       3.33970857e-07      -7.06292413e-07 
      -1.47358929e-07       3.33970826e-07      -7.07051974e-07 
       5.24434316e-08       3.34730518e-07      -7.07052113e-07 
       1.46901037e-07       3.34730549e-07      -7.06292552e-07 
      -6.29071308e-08       4.77846074e-07      -1.01078759e-06 
      -1.75120588e-07       4.77846030e-07      -1.01169905e-06 
       6.23571135e-08       4.78757675e-07      -1.01169924e-06 
       1.74570571e-07       4.78757719e-07      -1.01078778e-06 
      -6.29071308e-08       4.77846074e-07      -1.01078759e-06 
      -1.75120588e-07       4.77846030e-07      -1.01169905e-06 
       6.23571135e-08       4.78757675e-07      -1.01169924e-06 
       1.74570571e-07       4.78757719e-07      -1.01078778e-06 
      -7.27214480e-08       6.46184873e-07      -1.36721985e-06 
      -2.02312201e-07       6.46184815e-07      -1.36828321e-06 
       7.20791316e-08       6.47248416e-07      -1.36828347e-06 
       2.01669884e-07       6.47248474e-07      -1.36722011e-06 
      -7.27214480e-08       6.46184873e-07      -1.36721985e-06 
      -2.02312201e-07       6.46184815e-07      -1.36828321e-06 
       7.20791316e-08       6.47248416e-07      -1.36828347e-06 
       2.01669884e-07       6.47248474e-07      -1.36722011e-06 
      -8.23442734e-08       8.38460069e-07      -1.77452844e-06 
      -2.28933765e-07       8.38459994e-07      -1.77574368e-06 
       8.16094874e-08       8.39675555e-07      -1.77574402e-06 
       2.28198979e-07       8.39675630e-07      -1.77452877e-06 
      -8.23442734e-08       8.38460069e-07      -1.77452844e-06 
      -2.28933765e-07       8.38459994e-07      -1.77574368e-06 
       8.16094874e-08       8.39675555e-07      -1.77574402e-06 
       2.28198979e-07       8.39675630e-07      -1.77452877e-06 
      -9.17756047e-08       1.05414448e-06      -2.23165256e-06 
      -2.54985280e-07       1.05414438e-06      -2.23301969e-06 
       9.09481830e-08       1.05551191e-06      -2.23302011e-06 
       2.54157858e-07       1.05551200e-06      -2.23165298e-06 
      -9.17756047e-08       1.05414448e-06      -2.23165256e-06 
      -2.54985280e-07       1.05414438e-06      -2.23301969e-06 
       9.09481830e-08       1.05551191e-06      -2.23302011e-06 
       2.54157858e-07       1.05551200e-06      -2.23165298e-06 
      -1.01015441e-07       1.29271091e-06      -2.73753146e-06 
      -2.80466742e-07       1.29271080e-06      -2.73905047e-06 
       1.00095220e-07       1.29423029e-06      -2.73905098e-06 
       2.79546521e-07       1.29423040e-06      -2.73753196e-06 
      -1.01015441e-07       1.29271091e-06      -2.73753146e-06 
      -2.80466742e-07       1.29271080e-06      -2.73905047e-06 
       1.00095220e-07       1.29423029e-06      -2.73905098e-06 
       2.79546521e-07       1.29423040e-06      -2.73753196e-06 
      -1.10057501e-07       1.55364957e-06      -3.29113002e-06 
      -3.05391966e-07       1.55364943e-06      -3.29278493e-06 
       1.09074369e-07       1.55530491e-06      -3.29278553e-06 
       3.04408834e-07       1.55530504e-06      -3.29113062e-06 
      -1.10057501e-07       1.55364957e-06      -3.29113002e-06 
      -3.05391966e-07       1.55364943e-06      -3.29278493e-06 
       1.09074369e-07       1.55530491e-06      -3.29278553e-06 
       3.04408834e-07       1.55530504e-06      -3.29113062e-06 
      -1.18924967e-07       1.83647145e-06      -3.89146510e-06 
      -3.29803664e-07       1.83647130e-06      -3.89325590e-06 
       1.17878495e-07       1.83826275e-06      -3.89325659e-06 
       3.28757193e-07       1.83826291e-06      -3.89146579e-06 
      -1.18924967e-07       1.83647145e-06      -3.89146510e-06 
      -3.29803664e-07       1.83647130e-06      -3.89325590e-06 
       1.17878495e-07       1.83826275e-06      -3.89325659e-06 
       3.28757193e-07       1.83826291e-06      -3.89146579e-06 
      -1.27617836e-07       2.14070456e-06      -4.53757779e-06 
      -3.53701832e-07       2.14070438e-06      -4.53950447e-06 
       1.26507604e-07       2.14263183e-06      -4.53950528e-06 
       3.52591599e-07       2.14263200e-06      -4.53757859e-06 
      -1.27617836e-07       2.14070456e-06      -4.53757779e-06 
      -3.53701832e-07       2.14070438e-06      -4.53950447e-06 
       1.26507604e-07       2.14263183e-06      -4.53950528e-06 
       3.52591599e-07       2.14263200e-06      -4.53757859e-06 
      -1.36136103e-07       2.46587689e-06      -5.22850921e-06 
      -3.77086463e-07       2.46587668e-06      -5.23057178e-06 
       1.34961699e-07       2.46794012e-06      -5.23057269e-06 
       3.75912060e-07       2.46794032e-06      -5.22851012e-06 
      -1.36136103e-07       2.46587689e-06      -5.22850921e-06 
      -3.77086463e-07       2.46587668e-06      -5.23057178e-06 
       1.34961699e-07       2.46794012e-06      -5.23057269e-06 
       3.75912060e-07       2.46794032e-06      -5.22851012e-06 
      -1.44479763e-07       2.81151642e-06      -5.96330047e-06 
      -3.99957556e-07       2.81151620e-06      -5.96549893e-06 
       1.43240785e-07       2.81371562e-06      -5.96549996e-06 
       3.98718577e-07       2.81371585e-06      -5.96330150e-06 
      -1.44479763e-07       2.81151642e-06      -5.96330047e-06 
      -3.99957556e-07       2.81151620e-06      -5.96549893e-06 
       1.43240785e-07       2.81371562e-06      -5.96549996e-06 
       3.98718577e-07       2.81371585e-06      -5.96330150e-06 
      -1.52648812e-07       3.17715117e-06      -6.74099269e-06 
      -4.22315105e-07       3.17715091e-06      -6.74332703e-06 
       1.51344866e-07       3.17948633e-06      -6.74332818e-06 
       4.21011157e-07       3.17948658e-06      -6.74099384e-06 
      -1.52648812e-07       3.17715117e-06      -6.74099269e-06 
      -4.22315105e-07       3.17715091e-06      -6.74332703e-06 
       1.51344866e-07       3.17948633e-06      -6.74332818e-06 
       4.21011157e-07       3.17948658e-06      -6.74099384e-06 
      -1.60643246e-07       3.56230911e-06      -7.56062698e-06 
      -4.44159104e-07       3.56230883e-06      -7.56309720e-06 
       1.59273946e-07       3.56478024e-06      -7.56309847e-06 
       4.42789805e-07       3.56478052e-06      -7.56062825e-06 
      -1.60643246e-07       3.56230911e-06      -7.56062698e-06 
      -4.44159104e-07       3.56230883e-06      -7.56309720e-06 
       1.59273946e-07       3.56478024e-06      -7.56309847e-06 
       4.42789805e-07       3.56478052e-06      -7.56062825e-06 
      -1.68463059e-07       3.96651825e-06      -8.42124445e-06 
      -4.65489550e-07       3.96651794e-06      -8.42385055e-06 
       1.67028032e-07       3.96912535e-06      -8.42385194e-06 
       4.64054523e-07       3.96912566e-06      -8.42124584e-06 
      -1.68463059e-07       3.96651825e-06      -8.42124445e-06 
      -4.65489550e-07       3.96651794e-06      -8.42385055e-06 
       1.67028032e-07       3.96912535e-06      -8.42385194e-06 
       4.64054523e-07       3.96912566e-06      -8.42124584e-06 
      -1.76108248e-07       4.38930658e-06      -9.32188621e-06 
      -4.86306440e-07       4.38930625e-06      -9.32462819e-06 
       1.74607126e-07       4.39204965e-06      -9.32462971e-06 
       4.84805318e-07       4.39204999e-06      -9.32188773e-06 
      -1.76108248e-07       4.38930658e-06      -9.32188621e-06 
      -4.86306440e-07       4.38930625e-06      -9.32462819e-06 
       1.74607126e-07       4.39204965e-06      -9.32462971e-06 
       4.84805318e-07       4.39204999e-06      -9.32188773e-06 
      -1.83578808e-07       4.83020210e-06      -1.02615934e-05 
      -5.06609767e-07       4.83020173e-06      -1.02644712e-05 
       1.82011233e-07       4.83308114e-06      -1.02644729e-05 
       5.05042191e-07       4.83308150e-06      -1.02615950e-05 
      -1.83578809e-07       4.83020210e-06      -1.02615934e-05 
      -5.06609767e-07       4.83020173e-06      -1.02644712e-05 
       1.82011233e-07       4.83308114e-06      -1.02644729e-05 
       5.05042191e-07       4.83308150e-06      -1.02615950e-05 
      -1.90872048e-07       5.28874987e-06      -1.12394315e-05 
      -5.26416488e-07       5.28874948e-06      -1.12424292e-05 
       1.89259207e-07       5.29174890e-06      -1.12424310e-05 
       5.24803648e-07       5.29174929e-06      -1.12394333e-05 
      -1.90872048e-07       5.28874987e-06      -1.12394315e-05 
      -5.26416488e-07       5.28874948e-06      -1.12424292e-05 
       1.89259207e-07       5.29174890e-06      -1.12424310e-05 
       5.24803648e-07       5.29174929e-06      -1.12394333e-05 
      -1.98007621e-07       5.76451574e-06      -1.22545182e-05 
      -5.45766184e-07       5.76451532e-06      -1.22576358e-05 
       1.96349001e-07       5.76763475e-06      -1.22576377e-05 
       5.44107564e-07       5.76763517e-06      -1.22545201e-05 
      -1.98007621e-07       5.76451574e-06      -1.22545182e-05 
      -5.45766184e-07       5.76451532e-06      -1.22576358e-05 
       1.96349001e-07       5.76763475e-06      -1.22576377e-05 
       5.44107564e-07       5.76763517e-06      -1.22545201e-05 
      -2.04985520e-07       6.25708281e-06      -1.33059966e-05 
      -5.64658847e-07       6.25708236e-06      -1.33092342e-05 
       2.03280621e-07       6.26032180e-06      -1.33092362e-05 
       5.62953947e-07       6.26032225e-06      -1.33059987e-05 
      -2.04985520e-07       6.25708281e-06      -1.33059966e-05 
      -5.64658847e-07       6.25708236e-06      -1.33092342e-05 
       2.03280621e-07       6.26032180e-06      -1.33092362e-05 
       5.62953947e-07       6.26032225e-06      -1.33059987e-05 
      -2.11805743e-07       6.76603418e-06      -1.43930102e-05 
      -5.83094473e-07       6.76603370e-06      -1.43963676e-05 
       2.10054071e-07       6.76939315e-06      -1.43963698e-05 
       5.81342801e-07       6.76939363e-06      -1.43930124e-05 
      -2.11805743e-07       6.76603418e-06      -1.43930102e-05 
      -5.83094473e-07       6.76603370e-06      -1.43963676e-05 
       2.10054071e-07       6.76939315e-06      -1.43963698e-05 
       5.81342801e-07       6.76939363e-06      -1.43930124e-05 
      -2.18468280e-07       7.29095296e-06      -1.55147021e-05 
      -6.01073055e-07       7.29095245e-06      -1.55181794e-05 
       2.16669358e-07       7.29443192e-06      -1.55181817e-05 
       5.99274133e-07       7.29443243e-06      -1.55147044e-05 
      -2.18468280e-07       7.29095296e-06      -1.55147021e-05 
      -6.01073055e-07       7.29095245e-06      -1.55181794e-05 
       2.16669358e-07       7.29443192e-06      -1.55181817e-05 
       5.99274133e-07       7.29443243e-06      -1.55147044e-05 
      -2.24973128e-07       7.83142226e-06      -1.66702155e-05 
      -6.18594589e-07       7.83142172e-06      -1.66738127e-05 
       2.23126489e-07       7.83502120e-06      -1.66738152e-05 
       6.16747950e-07       7.83502173e-06      -1.66702180e-05 
      -2.24973128e-07       7.83142226e-06      -1.66702155e-05 
      -6.18594589e-07       7.83142172e-06      -1.66738127e-05 
       2.23126489e-07       7.83502120e-06      -1.66738152e-05 
       6.16747950e-07       7.83502173e-06      -1.66702180e-05 
      -2.31320278e-07       8.38702517e-06      -1.78586938e-05 
      -6.35659066e-07       8.38702460e-06      -1.78624109e-05 
       2.29425469e-07       8.39074410e-06      -1.78624135e-05 
       6.33764256e-07       8.39074467e-06      -1.78586964e-05 
      -2.31320278e-07       8.38702517e-06      -1.78586938e-05 
      -6.35659066e-07       8.38702460e-06      -1.78624109e-05 
       2.29425469e-07       8.39074410e-06      -1.78624135e-05 
       6.33764256e-07       8.39074467e-06      -1.78586964e-05 
      -2.37509727e-07       8.95734482e-06      -1.90792802e-05 
      -6.52266481e-07       8.95734422e-06      -1.90831171e-05 
       2.35566304e-07       8.96118372e-06      -1.90831199e-05 
       6.50323059e-07       8.96118432e-06      -1.90792829e-05 
      -2.37509727e-07       8.95734482e-06      -1.90792802e-05 
      -6.52266481e-07       8.95734422e-06      -1.90831171e-05 
       2.35566304e-07       8.96118372e-06      -1.90831199e-05 
       6.50323059e-07       8.96118432e-06      -1.90792829e-05 
      -2.43541468e-07       9.54196430e-06      -2.03311179e-05 
      -6.68416829e-07       9.54196367e-06      -2.03350747e-05 
       2.41549000e-07       9.54592319e-06      -2.03350776e-05 
       6.66424363e-07       9.54592381e-06      -2.03311207e-05 
      -2.43541468e-07       9.54196430e-06      -2.03311179e-05 
      -6.68416829e-07       9.54196367e-06      -2.03350747e-05 
       2.41549000e-07       9.54592319e-06      -2.03350776e-05 
       6.66424363e-07       9.54592381e-06      -2.03311207e-05 
      -2.49415494e-07       1.01404667e-05      -2.16133501e-05 
      -6.84110105e-07       1.01404661e-05      -2.16174268e-05 
       2.47373563e-07       1.01445456e-05      -2.16174298e-05 
       6.82068174e-07       1.01445462e-05      -2.16133531e-05 
      -2.49415494e-07       1.01404667e-05      -2.16133501e-05 
      -6.84110105e-07       1.01404661e-05      -2.16174268e-05 
       2.47373563e-07       1.01445456e-05      -2.16174298e-05 
       6.82068173e-07       1.01445462e-05      -2.16133531e-05 
      -2.55132665e-07       1.07524523e-05      -2.29251448e-05 
      -6.99366876e-07       1.07524516e-05      -2.29293254e-05 
       2.53055742e-07       1.07566351e-05      -2.29293285e-05 
       6.97289953e-07       1.07566358e-05      -2.29251479e-05 
      -2.55132665e-07       1.07524523e-05      -2.29251448e-05 
      -6.99366876e-07       1.07524516e-05      -2.29293254e-05 
       2.53055742e-07       1.07566351e-05      -2.29293285e-05 
       6.97289953e-07       1.07566358e-05      -2.29251479e-05 
      -2.60709720e-07       1.13775422e-05      -2.42657233e-05 
      -7.14224044e-07       1.13775415e-05      -2.42700078e-05 
       2.58597304e-07       1.13818290e-05      -2.42700111e-05 
       7.12111630e-07       1.13818298e-05      -2.42657266e-05 
      -2.60709720e-07       1.13775422e-05      -2.42657233e-05 
      -7.14224044e-07       1.13775415e-05      -2.42700078e-05 
       2.58597304e-07       1.13818290e-05      -2.42700111e-05 
       7.12111630e-07       1.13818298e-05      -2.42657266e-05 
      -2.66146649e-07       1.20153751e-05      -2.56343334e-05 
      -7.28681604e-07       1.20153744e-05      -2.56387217e-05 
       2.63998258e-07       1.20197660e-05      -2.56387252e-05 
       7.26533212e-07       1.20197667e-05      -2.56343368e-05 
      -2.66146649e-07       1.20153751e-05      -2.56343334e-05 
      -7.28681604e-07       1.20153744e-05      -2.56387217e-05 
       2.63998258e-07       1.20197660e-05      -2.56387252e-05 
       7.26533212e-07       1.20197667e-05      -2.56343368e-05 
      -2.71443450e-07       1.26655897e-05      -2.70302227e-05 
      -7.42739549e-07       1.26655889e-05      -2.70347149e-05 
       2.69258607e-07       1.26700845e-05      -2.70347185e-05 
       7.40554706e-07       1.26700853e-05      -2.70302262e-05 
      -2.71443450e-07       1.26655897e-05      -2.70302227e-05 
      -7.42739549e-07       1.26655889e-05      -2.70347149e-05 
       2.69258607e-07       1.26700845e-05      -2.70347185e-05 
       7.40554706e-07       1.26700853e-05      -2.70302262e-05 
      -2.76600113e-07       1.33278245e-05      -2.84526389e-05 
      -7.56397871e-07       1.33278237e-05      -2.84572350e-05 
       2.74378359e-07       1.33324233e-05      -2.84572387e-05 
       7.54176117e-07       1.33324241e-05      -2.84526426e-05 
      -2.76600113e-07       1.33278245e-05      -2.84526389e-05 
      -7.56397871e-07       1.33278237e-05      -2.84572350e-05 
       2.74378359e-07       1.33324233e-05      -2.84572387e-05 
       7.54176117e-07       1.33324241e-05      -2.84526426e-05 
      -2.81616635e-07       1.40017182e-05      -2.99008297e-05 
      -7.69656566e-07       1.40017174e-05      -2.99055297e-05 
       2.79357521e-07       1.40064211e-05      -2.99055336e-05 
       7.67397452e-07       1.40064219e-05      -2.99008335e-05 
      -2.81616635e-07       1.40017182e-05      -2.99008297e-05 
      -7.69656566e-07       1.40017174e-05      -2.99055297e-05 
       2.79357521e-07       1.40064211e-05      -2.99055336e-05 
       7.67397452e-07       1.40064219e-05      -2.99008335e-05 
      -2.86493005e-07       1.46869095e-05      -3.13740427e-05 
      -7.82515625e-07       1.46869087e-05      -3.13788467e-05 
       2.84196100e-07       1.46917163e-05      -3.13788506e-05 
       7.80218719e-07       1.46917172e-05      -3.13740467e-05 
      -2.86493005e-07       1.46869095e-05      -3.13740427e-05 
      -7.82515625e-07       1.46869087e-05      -3.13788467e-05 
       2.84196100e-07       1.46917163e-05      -3.13788506e-05 
       7.80218719e-07       1.46917172e-05      -3.13740467e-05 
      -2.91229219e-07       1.53830370e-05      -3.28715257e-05 
      -7.94975040e-07       1.53830361e-05      -3.28764336e-05 
       2.88894103e-07       1.53879478e-05      -3.28764377e-05 
       7.92639924e-07       1.53879486e-05      -3.28715298e-05 
      -2.91229219e-07       1.53830370e-05      -3.28715257e-05 
      -7.94975040e-07       1.53830361e-05      -3.28764336e-05 