# vtk DataFile Version 2.0
./output/onsasExample_BladeCantileverBeamPitch_windVel3DDynamic 3D/onsasExample_BladeCantileverBeamPitch_windVel3DDynamic 3D_0042.vtk
ASCII
DATASET UNSTRUCTURED_GRID

POINTS 800 float
      -1.143117e-23      -7.180703e-02      -7.180703e-02 
       1.818144e-23       7.180703e-02      -7.180703e-02 
       1.143117e-23       7.180703e-02       7.180703e-02 
      -1.818144e-23      -7.180703e-02       7.180703e-02 
       2.000000e-01      -7.180702e-02      -7.180706e-02 
       2.000000e-01       7.180705e-02      -7.180706e-02 
       2.000000e-01       7.180705e-02       7.180701e-02 
       2.000000e-01      -7.180702e-02       7.180701e-02 
       2.000000e-01      -7.180702e-02      -7.180706e-02 
       2.000000e-01       7.180705e-02      -7.180706e-02 
       2.000000e-01       7.180705e-02       7.180701e-02 
       2.000000e-01      -7.180702e-02       7.180701e-02 
       4.000000e-01      -7.180698e-02      -7.180713e-02 
       3.999999e-01       7.180709e-02      -7.180713e-02 
       4.000000e-01       7.180709e-02       7.180694e-02 
       4.000001e-01      -7.180698e-02       7.180694e-02 
       4.000000e-01      -7.180698e-02      -7.180713e-02 
       3.999999e-01       7.180709e-02      -7.180713e-02 
       4.000000e-01       7.180709e-02       7.180694e-02 
       4.000001e-01      -7.180698e-02       7.180694e-02 
       6.000000e-01      -7.180691e-02      -7.180725e-02 
       5.999999e-01       7.180715e-02      -7.180725e-02 
       6.000000e-01       7.180715e-02       7.180681e-02 
       6.000001e-01      -7.180691e-02       7.180681e-02 
       6.000000e-01      -7.180691e-02      -7.180725e-02 
       5.999999e-01       7.180715e-02      -7.180725e-02 
       6.000000e-01       7.180715e-02       7.180681e-02 
       6.000001e-01      -7.180691e-02       7.180681e-02 
       8.000000e-01      -7.180682e-02      -7.180742e-02 
       7.999999e-01       7.180725e-02      -7.180742e-02 
       8.000000e-01       7.180725e-02       7.180665e-02 
       8.000001e-01      -7.180682e-02       7.180665e-02 
       8.000000e-01      -7.180682e-02      -7.180742e-02 
       7.999999e-01       7.180725e-02      -7.180742e-02 
       8.000000e-01       7.180725e-02       7.180665e-02 
       8.000001e-01      -7.180682e-02       7.180665e-02 
       1.000000e+00      -7.180670e-02      -7.180763e-02 
       9.999999e-01       7.180736e-02      -7.180763e-02 
       1.000000e+00       7.180737e-02       7.180643e-02 
       1.000000e+00      -7.180670e-02       7.180643e-02 
       1.000000e+00      -7.180670e-02      -7.180763e-02 
       9.999999e-01       7.180736e-02      -7.180763e-02 
       1.000000e+00       7.180737e-02       7.180643e-02 
       1.000000e+00      -7.180670e-02       7.180643e-02 
       1.200000e+00      -7.180656e-02      -7.180789e-02 
       1.200000e+00       7.180751e-02      -7.180789e-02 
       1.200000e+00       7.180751e-02       7.180618e-02 
       1.200000e+00      -7.180656e-02       7.180618e-02 
       1.200000e+00      -7.180656e-02      -7.180789e-02 
       1.200000e+00       7.180751e-02      -7.180789e-02 
       1.200000e+00       7.180751e-02       7.180618e-02 
       1.200000e+00      -7.180656e-02       7.180618e-02 
       1.400000e+00      -7.180639e-02      -7.180819e-02 
       1.400000e+00       7.180767e-02      -7.180819e-02 
       1.400000e+00       7.180768e-02       7.180587e-02 
       1.400000e+00      -7.180639e-02       7.180588e-02 
       1.400000e+00      -7.180639e-02      -7.180819e-02 
       1.400000e+00       7.180767e-02      -7.180819e-02 
       1.400000e+00       7.180768e-02       7.180587e-02 
       1.400000e+00      -7.180639e-02       7.180588e-02 
       1.600000e+00      -7.180620e-02      -7.180853e-02 
       1.600000e+00       7.180787e-02      -7.180854e-02 
       1.600000e+00       7.180787e-02       7.180553e-02 
       1.600000e+00      -7.180620e-02       7.180553e-02 
       1.600000e+00      -7.180620e-02      -7.180853e-02 
       1.600000e+00       7.180787e-02      -7.180854e-02 
       1.600000e+00       7.180787e-02       7.180553e-02 
       1.600000e+00      -7.180620e-02       7.180553e-02 
       1.800000e+00      -7.180599e-02      -7.180892e-02 
       1.800000e+00       7.180808e-02      -7.180892e-02 
       1.800000e+00       7.180808e-02       7.180514e-02 
       1.800000e+00      -7.180599e-02       7.180515e-02 
       1.800000e+00      -7.180599e-02      -7.180892e-02 
       1.800000e+00       7.180808e-02      -7.180892e-02 
       1.800000e+00       7.180808e-02       7.180514e-02 
       1.800000e+00      -7.180599e-02       7.180515e-02 
       2.000000e+00      -7.180575e-02      -7.180935e-02 
       2.000000e+00       7.180832e-02      -7.180935e-02 
       2.000000e+00       7.180832e-02       7.180472e-02 
       2.000000e+00      -7.180575e-02       7.180472e-02 
       2.000000e+00      -7.180575e-02      -7.180935e-02 
       2.000000e+00       7.180832e-02      -7.180935e-02 
       2.000000e+00       7.180832e-02       7.180472e-02 
       2.000000e+00      -7.180575e-02       7.180472e-02 
       2.200000e+00      -7.180549e-02      -7.180981e-02 
       2.200000e+00       7.180857e-02      -7.180981e-02 
       2.200000e+00       7.180858e-02       7.180425e-02 
       2.200000e+00      -7.180549e-02       7.180425e-02 
       2.200000e+00      -7.180549e-02      -7.180981e-02 
       2.200000e+00       7.180857e-02      -7.180981e-02 
       2.200000e+00       7.180858e-02       7.180425e-02 
       2.200000e+00      -7.180549e-02       7.180425e-02 
       2.400000e+00      -7.180521e-02      -7.181032e-02 
       2.400000e+00       7.180886e-02      -7.181032e-02 
       2.400000e+00       7.180886e-02       7.180375e-02 
       2.400000e+00      -7.180521e-02       7.180375e-02 
       2.400000e+00      -7.180521e-02      -7.181032e-02 
       2.400000e+00       7.180886e-02      -7.181032e-02 
       2.400000e+00       7.180886e-02       7.180375e-02 
       2.400000e+00      -7.180521e-02       7.180375e-02 
       2.600000e+00      -7.180491e-02      -7.181086e-02 
       2.600000e+00       7.180916e-02      -7.181086e-02 
       2.600000e+00       7.180916e-02       7.180320e-02 
       2.600000e+00      -7.180491e-02       7.180320e-02 
       2.600000e+00      -7.180491e-02      -7.181086e-02 
       2.600000e+00       7.180916e-02      -7.181086e-02 
       2.600000e+00       7.180916e-02       7.180320e-02 
       2.600000e+00      -7.180491e-02       7.180320e-02 
       2.800000e+00      -7.180459e-02      -7.181144e-02 
       2.800000e+00       7.180948e-02      -7.181144e-02 
       2.800000e+00       7.180948e-02       7.180262e-02 
       2.800000e+00      -7.180458e-02       7.180262e-02 
       2.800000e+00      -7.180459e-02      -7.181144e-02 
       2.800000e+00       7.180948e-02      -7.181144e-02 
       2.800000e+00       7.180948e-02       7.180262e-02 
       2.800000e+00      -7.180458e-02       7.180262e-02 
       3.000000e+00      -7.180424e-02      -7.181206e-02 
       3.000000e+00       7.180982e-02      -7.181206e-02 
       3.000000e+00       7.180982e-02       7.180200e-02 
       3.000000e+00      -7.180424e-02       7.180201e-02 
       3.000000e+00      -7.180424e-02      -7.181206e-02 
       3.000000e+00       7.180982e-02      -7.181206e-02 
       3.000000e+00       7.180982e-02       7.180200e-02 
       3.000000e+00      -7.180424e-02       7.180201e-02 
       3.200000e+00      -7.180388e-02      -7.181271e-02 
       3.200000e+00       7.181018e-02      -7.181271e-02 
       3.200000e+00       7.181019e-02       7.180135e-02 
       3.200000e+00      -7.180388e-02       7.180135e-02 
       3.200000e+00      -7.180388e-02      -7.181271e-02 
       3.200000e+00       7.181018e-02      -7.181271e-02 
       3.200000e+00       7.181019e-02       7.180135e-02 
       3.200000e+00      -7.180388e-02       7.180135e-02 
       3.400000e+00      -7.180350e-02      -7.181340e-02 
       3.400000e+00       7.181057e-02      -7.181340e-02 
       3.400000e+00       7.181057e-02       7.180067e-02 
       3.400000e+00      -7.180350e-02       7.180067e-02 
       3.400000e+00      -7.180350e-02      -7.181340e-02 
       3.400000e+00       7.181057e-02      -7.181340e-02 
       3.400000e+00       7.181057e-02       7.180067e-02 
       3.400000e+00      -7.180350e-02       7.180067e-02 
       3.600000e+00      -7.180310e-02      -7.181412e-02 
       3.600000e+00       7.181097e-02      -7.181412e-02 
       3.600000e+00       7.181097e-02       7.179994e-02 
       3.600000e+00      -7.180310e-02       7.179995e-02 
       3.600000e+00      -7.180310e-02      -7.181412e-02 
       3.600000e+00       7.181097e-02      -7.181412e-02 
       3.600000e+00       7.181097e-02       7.179994e-02 
       3.600000e+00      -7.180310e-02       7.179995e-02 
       3.800000e+00      -7.180268e-02      -7.181487e-02 
       3.800000e+00       7.181139e-02      -7.181488e-02 
       3.800000e+00       7.181139e-02       7.179919e-02 
       3.800000e+00      -7.180268e-02       7.179919e-02 
       3.800000e+00      -7.180268e-02      -7.181487e-02 
       3.800000e+00       7.181139e-02      -7.181488e-02 
       3.800000e+00       7.181139e-02       7.179919e-02 
       3.800000e+00      -7.180268e-02       7.179919e-02 
       4.000000e+00      -7.180224e-02      -7.181566e-02 
       4.000000e+00       7.181182e-02      -7.181566e-02 
       4.000000e+00       7.181183e-02       7.179840e-02 
       4.000000e+00      -7.180224e-02       7.179841e-02 
       4.000000e+00      -7.180224e-02      -7.181566e-02 
       4.000000e+00       7.181182e-02      -7.181566e-02 
       4.000000e+00       7.181183e-02       7.179840e-02 
       4.000000e+00      -7.180224e-02       7.179841e-02 
       4.200000e+00      -7.180179e-02      -7.181648e-02 
[...]
POINT_DATA       800 
VECTORS Displacements float
      -1.14311743e-23       1.38777878e-17       0.00000000e+00 
       1.81814390e-23      -1.38777878e-17       0.00000000e+00 
       1.14311743e-23      -1.38777878e-17       0.00000000e+00 
      -1.81814390e-23       1.38777878e-17       0.00000000e+00 
      -7.89555801e-09       1.35483356e-08      -2.45243269e-08 
      -2.73983435e-08       1.35483343e-08      -2.46753814e-08 
       7.81418383e-09       1.36993936e-08      -2.46753857e-08 
       2.73169694e-08       1.36993949e-08      -2.45243312e-08 
      -7.89555801e-09       1.35483356e-08      -2.45243269e-08 
      -2.73983435e-08       1.35483343e-08      -2.46753814e-08 
       7.81418383e-09       1.36993936e-08      -2.46753857e-08 
       2.73169694e-08       1.36993949e-08      -2.45243312e-08 
      -1.56312078e-08       5.39934589e-08      -9.76003675e-08 
      -5.42587801e-08       5.39934537e-08      -9.79024719e-08 
       1.54683126e-08       5.42955769e-08      -9.79024888e-08 
       5.40958849e-08       5.42955821e-08      -9.76003844e-08 
      -1.56312078e-08       5.39934589e-08      -9.76003675e-08 
      -5.42587801e-08       5.39934537e-08      -9.79024719e-08 
       1.54683126e-08       5.42955769e-08      -9.79024888e-08 
       5.40958849e-08       5.42955821e-08      -9.76003844e-08 
      -2.32069477e-08       1.20808961e-07      -2.18256125e-07 
      -8.05813084e-08       1.20808949e-07      -2.18709275e-07 
       2.29623877e-08       1.21262141e-07      -2.18709313e-07 
       8.03367483e-08       1.21262152e-07      -2.18256163e-07 
      -2.32069477e-08       1.20808961e-07      -2.18256125e-07 
      -8.05813084e-08       1.20808949e-07      -2.18709275e-07 
       2.29623877e-08       1.21262141e-07      -2.18709313e-07 
       8.03367483e-08       1.21262152e-07      -2.18256163e-07 
      -3.06227768e-08       2.13468433e-07      -3.85519604e-07 
      -1.06365927e-07       2.13468413e-07      -3.86123795e-07 
       3.02964105e-08       2.14072676e-07      -3.86123860e-07 
       1.06039561e-07       2.14072696e-07      -3.85519669e-07 
      -3.06227768e-08       2.13468433e-07      -3.85519604e-07 
      -1.06365927e-07       2.13468413e-07      -3.86123795e-07 
       3.02964105e-08       2.14072676e-07      -3.86123860e-07 
       1.06039561e-07       2.14072696e-07      -3.85519669e-07 
      -3.78786930e-08       3.31445465e-07      -5.98418806e-07 
      -1.31612634e-07       3.31445435e-07      -5.99174035e-07 
       3.74703826e-08       3.32200774e-07      -5.99174135e-07 
       1.31204324e-07       3.32200805e-07      -5.98418905e-07 
      -3.78786930e-08       3.31445465e-07      -5.98418806e-07 
      -1.31612634e-07       3.31445435e-07      -5.99174035e-07 
       3.74703826e-08       3.32200774e-07      -5.99174135e-07 
       1.31204324e-07       3.32200805e-07      -5.98418905e-07 
      -4.49746953e-08       4.74213650e-07      -8.55981736e-07 
      -1.56321428e-07       4.74213607e-07      -8.56887999e-07 
       4.44843058e-08       4.75120026e-07      -8.56888140e-07 
       1.55831039e-07       4.75120069e-07      -8.55981876e-07 
      -4.49746953e-08       4.74213650e-07      -8.55981736e-07 
      -1.56321428e-07       4.74213607e-07      -8.56887999e-07 
       4.44843058e-08       4.75120026e-07      -8.56888140e-07 
       1.55831039e-07       4.75120069e-07      -8.55981876e-07 
      -5.19107821e-08       6.41246578e-07      -1.15723640e-06 
      -1.80492308e-07       6.41246520e-07      -1.15829369e-06 
       5.13381808e-08       6.42304022e-07      -1.15829388e-06 
       1.79919708e-07       6.42304080e-07      -1.15723658e-06 
      -5.19107821e-08       6.41246578e-07      -1.15723640e-06 
      -1.80492308e-07       6.41246520e-07      -1.15829369e-06 
       5.13381808e-08       6.42304022e-07      -1.15829388e-06 
       1.79919708e-07       6.42304080e-07      -1.15723658e-06 
      -5.86869515e-08       8.32017839e-07      -1.50121079e-06 
      -2.04125273e-07       8.32017765e-07      -1.50241911e-06 
       5.80320094e-08       8.33226353e-07      -1.50241935e-06 
       2.03470331e-07       8.33226427e-07      -1.50121103e-06 
      -5.86869515e-08       8.32017839e-07      -1.50121079e-06 
      -2.04125273e-07       8.32017765e-07      -1.50241911e-06 
       5.80320094e-08       8.33226353e-07      -1.50241935e-06 
       2.03470331e-07       8.33226427e-07      -1.50121103e-06 
      -6.53032028e-08       1.04600103e-06      -1.88693292e-06 
      -2.27220321e-07       1.04600093e-06      -1.88829227e-06 
       6.45657934e-08       1.04736061e-06      -1.88829257e-06 
       2.26482911e-07       1.04736070e-06      -1.88693322e-06 
      -6.53032028e-08       1.04600103e-06      -1.88693292e-06 
      -2.27220321e-07       1.04600093e-06      -1.88829227e-06 
       6.45657934e-08       1.04736061e-06      -1.88829257e-06 
       2.26482911e-07       1.04736070e-06      -1.88693322e-06 
      -7.17595343e-08       1.28266973e-06      -2.31343080e-06 
      -2.49777450e-07       1.28266962e-06      -2.31494117e-06 
       7.09395338e-08       1.28418039e-06      -2.31494153e-06 
       2.48957450e-07       1.28418050e-06      -2.31343116e-06 
      -7.17595341e-08       1.28266973e-06      -2.31343080e-06 
      -2.49777450e-07       1.28266962e-06      -2.31494117e-06 
       7.09395342e-08       1.28418039e-06      -2.31494153e-06 
       2.48957449e-07       1.28418050e-06      -2.31343116e-06 
      -7.80521097e-08       1.54151502e-06      -2.77975964e-06 
      -2.71813217e-07       1.54151489e-06      -2.78140505e-06 
       7.71775572e-08       1.54316078e-06      -2.78140548e-06 
       2.70938664e-07       1.54316091e-06      -2.77976006e-06 
      -7.80521097e-08       1.54151502e-06      -2.77975964e-06 
      -2.71813217e-07       1.54151489e-06      -2.78140505e-06 
       7.71775572e-08       1.54316078e-06      -2.78140548e-06 
       2.70938664e-07       1.54316091e-06      -2.77976006e-06 
      -8.42043870e-08       1.82204963e-06      -3.28503257e-06 
      -2.93371215e-07       1.82204948e-06      -3.28681302e-06 
       8.32749607e-08       1.82383049e-06      -3.28681352e-06 
       2.92441789e-07       1.82383064e-06      -3.28503306e-06 
      -8.42043870e-08       1.82204963e-06      -3.28503257e-06 
      -2.93371215e-07       1.82204948e-06      -3.28681302e-06 
       8.32749607e-08       1.82383049e-06      -3.28681352e-06 
       2.92441789e-07       1.82383064e-06      -3.28503306e-06 
      -9.02163633e-08       2.12380359e-06      -3.82838840e-06 
      -3.14451441e-07       2.12380342e-06      -3.83030390e-06 
       8.92317478e-08       2.12571955e-06      -3.83030447e-06 
       3.13466826e-07       2.12571972e-06      -3.82838897e-06 
      -9.02163633e-08       2.12380359e-06      -3.82838840e-06 
      -3.14451441e-07       2.12380342e-06      -3.83030390e-06 
       8.92317478e-08       2.12571955e-06      -3.83030447e-06 
       3.13466826e-07       2.12571972e-06      -3.82838897e-06 
      -9.60880340e-08       2.44630693e-06      -4.40896597e-06 
      -3.35053891e-07       2.44630673e-06      -4.41101651e-06 
       9.50479220e-08       2.44835798e-06      -4.41101715e-06 
       3.34013779e-07       2.44835818e-06      -4.40896661e-06 
      -9.60880340e-08       2.44630693e-06      -4.40896597e-06 
      -3.35053891e-07       2.44630673e-06      -4.41101651e-06 
       9.50479220e-08       2.44835798e-06      -4.41101715e-06 
       3.34013779e-07       2.44835818e-06      -4.40896661e-06 
      -1.01819396e-07       2.78908968e-06      -5.02590408e-06 
      -3.55178562e-07       2.78908945e-06      -5.02808966e-06 
       1.00723486e-07       2.79127583e-06      -5.02809038e-06 
       3.54082652e-07       2.79127606e-06      -5.02590481e-06 
      -1.01819396e-07       2.78908968e-06      -5.02590408e-06 
      -3.55178562e-07       2.78908945e-06      -5.02808966e-06 
       1.00723486e-07       2.79127583e-06      -5.02809038e-06 
       3.54082652e-07       2.79127606e-06      -5.02590481e-06 
      -1.07410447e-07       3.15168186e-06      -5.67834156e-06 
      -3.74825449e-07       3.15168161e-06      -5.68066217e-06 
       1.06258446e-07       3.15400312e-06      -5.68066298e-06 
       3.73673448e-07       3.15400337e-06      -5.67834237e-06 
      -1.07410447e-07       3.15168186e-06      -5.67834156e-06 
      -3.74825449e-07       3.15168161e-06      -5.68066217e-06 
       1.06258446e-07       3.15400312e-06      -5.68066298e-06 
       3.73673448e-07       3.15400337e-06      -5.67834237e-06 
      -1.12861180e-07       3.53361352e-06      -6.36541722e-06 
      -3.93994549e-07       3.53361325e-06      -6.36787287e-06 
       1.11652802e-07       3.53606989e-06      -6.36787376e-06 
       3.92786171e-07       3.53607016e-06      -6.36541811e-06 
      -1.12861180e-07       3.53361352e-06      -6.36541722e-06 
      -3.93994549e-07       3.53361325e-06      -6.36787287e-06 
       1.11652802e-07       3.53606989e-06      -6.36787376e-06 
       3.92786171e-07       3.53607016e-06      -6.36541811e-06 
      -1.18171596e-07       3.93441469e-06      -7.08626989e-06 
      -4.12685860e-07       3.93441438e-06      -7.08886057e-06 
       1.16906560e-07       3.93700615e-06      -7.08886154e-06 
       4.11420825e-07       3.93700645e-06      -7.08627086e-06 
      -1.18171596e-07       3.93441469e-06      -7.08626989e-06 
      -4.12685860e-07       3.93441438e-06      -7.08886057e-06 
       1.16906560e-07       3.93700615e-06      -7.08886154e-06 
       4.11420825e-07       3.93700645e-06      -7.08627086e-06 
      -1.23341688e-07       4.35361538e-06      -7.84003837e-06 
      -4.30899378e-07       4.35361505e-06      -7.84276409e-06 
       1.22019723e-07       4.35634195e-06      -7.84276515e-06 
       4.29577413e-07       4.35634228e-06      -7.84003944e-06 
      -1.23341688e-07       4.35361538e-06      -7.84003837e-06 
      -4.30899378e-07       4.35361505e-06      -7.84276409e-06 
       1.22019723e-07       4.35634195e-06      -7.84276515e-06 
       4.29577413e-07       4.35634228e-06      -7.84003944e-06 
      -1.28371454e-07       4.79074564e-06      -8.62586150e-06 
      -4.48635097e-07       4.79074529e-06      -8.62872224e-06 
       1.26992294e-07       4.79360732e-06      -8.62872340e-06 
       4.47255937e-07       4.79360767e-06      -8.62586265e-06 
      -1.28371454e-07       4.79074564e-06      -8.62586150e-06 
      -4.48635098e-07       4.79074529e-06      -8.62872224e-06 
       1.26992294e-07       4.79360732e-06      -8.62872340e-06 
       4.47255937e-07       4.79360767e-06      -8.62586265e-06 
      -1.33260876e-07       5.24535292e-06      -9.44290488e-06 
      -4.65913287e-07       5.24535253e-06      -9.44588471e-06 
       1.31844039e-07       5.24833374e-06      -9.44588595e-06 
       4.64496450e-07       5.24833413e-06      -9.44290613e-06 
      -1.33260876e-07       5.24535292e-06      -9.44290488e-06 
      -4.65913287e-07       5.24535253e-06      -9.44588471e-06 
       1.31844039e-07       5.24833374e-06      -9.44588595e-06 
       4.64496450e-07       5.24833413e-06      -9.44290613e-06 
      -1.38028835e-07       5.71700616e-06      -1.02903906e-05 
      -4.82772889e-07       5.71700575e-06      -1.02934895e-05 
       1.36573944e-07       5.72010614e-06      -1.02934908e-05 
       4.81317999e-07       5.72010655e-06      -1.02903919e-05 
      -1.38028835e-07       5.71700616e-06      -1.02903906e-05 
      -4.82772889e-07       5.71700575e-06      -1.02934895e-05 
       1.36573944e-07       5.72010614e-06      -1.02934908e-05 
       4.81317999e-07       5.72010655e-06      -1.02903919e-05 
      -1.42675326e-07       6.20529159e-06      -1.11675660e-05 
      -4.99213901e-07       6.20529115e-06      -1.11707840e-05 
       1.41182015e-07       6.20851072e-06      -1.11707854e-05 
       4.97720590e-07       6.20851117e-06      -1.11675674e-05 
      -1.42675326e-07       6.20529159e-06      -1.11675660e-05 
      -4.99213901e-07       6.20529115e-06      -1.11707840e-05 
       1.41182015e-07       6.20851072e-06      -1.11707854e-05 
       4.97720590e-07       6.20851117e-06      -1.11675674e-05 
      -1.47200346e-07       6.70979543e-06      -1.20736785e-05 
      -5.15236318e-07       6.70979496e-06      -1.20770155e-05 
       1.45668253e-07       6.71313372e-06      -1.20770171e-05 
       5.13704226e-07       6.71313419e-06      -1.20736800e-05 
      -1.47200346e-07       6.70979543e-06      -1.20736785e-05 
      -5.15236318e-07       6.70979496e-06      -1.20770155e-05 
       1.45668253e-07       6.71313372e-06      -1.20770171e-05 
       5.13704226e-07       6.71313419e-06      -1.20736800e-05 
      -1.51603890e-07       7.23010390e-06      -1.30079755e-05 
      -5.30840136e-07       7.23010340e-06      -1.30114316e-05 
       1.50032667e-07       7.23356134e-06      -1.30114332e-05 
       5.29268913e-07       7.23356184e-06      -1.30079771e-05 
      -1.51603890e-07       7.23010390e-06      -1.30079755e-05 
      -5.30840136e-07       7.23010340e-06      -1.30114316e-05 
       1.50032667e-07       7.23356134e-06      -1.30114332e-05 
       5.29268913e-07       7.23356184e-06      -1.30079771e-05 
      -1.55885953e-07       7.76580321e-06      -1.39697043e-05 
      -5.46025349e-07       7.76580268e-06      -1.39732795e-05 
       1.54275258e-07       7.76937981e-06      -1.39732813e-05 
       5.44414655e-07       7.76938034e-06      -1.39697060e-05 
      -1.55885953e-07       7.76580321e-06      -1.39697043e-05 
      -5.46025349e-07       7.76580268e-06      -1.39732795e-05 
       1.54275258e-07       7.76937981e-06      -1.39732813e-05 
       5.44414655e-07       7.76938034e-06      -1.39697060e-05 
      -1.60046531e-07       8.31647959e-06      -1.49581125e-05 
      -5.60791953e-07       8.31647904e-06      -1.49618068e-05 
       1.58396034e-07       8.32017534e-06      -1.49618086e-05 
       5.59141457e-07       8.32017590e-06      -1.49581143e-05 
      -1.60046531e-07       8.31647959e-06      -1.49581125e-05 
      -5.60791953e-07       8.31647904e-06      -1.49618068e-05 
       1.58396034e-07       8.32017534e-06      -1.49618086e-05 
       5.59141457e-07       8.32017590e-06      -1.49581143e-05 
      -1.64085616e-07       8.88171926e-06      -1.59724473e-05 
      -5.75139942e-07       8.88171867e-06      -1.59762606e-05 
       1.62394999e-07       8.88553416e-06      -1.59762625e-05 
       5.73449324e-07       8.88553475e-06      -1.59724492e-05 
      -1.64085616e-07       8.88171926e-06      -1.59724473e-05 
      -5.75139942e-07       8.88171867e-06      -1.59762606e-05 
       1.62394999e-07       8.88553416e-06      -1.59762625e-05 
       5.73449324e-07       8.88553475e-06      -1.59724492e-05 
      -1.68003209e-07       9.46110844e-06      -1.70119561e-05 
      -5.89069314e-07       9.46110782e-06      -1.70158886e-05 
       1.66272154e-07       9.46504249e-06      -1.70158906e-05 
       5.87338260e-07       9.46504311e-06      -1.70119581e-05 
      -1.68003209e-07       9.46110844e-06      -1.70119561e-05 
      -5.89069314e-07       9.46110782e-06      -1.70158886e-05 
       1.66272154e-07       9.46504249e-06      -1.70158906e-05 
       5.87338260e-07       9.46504311e-06      -1.70119581e-05 
      -1.71799300e-07       1.00542333e-05      -1.80758864e-05 
      -6.02580062e-07       1.00542327e-05      -1.80799379e-05 
       1.70027508e-07       1.00582865e-05      -1.80799400e-05 
       6.00808269e-07       1.00582872e-05      -1.80758885e-05 
      -1.71799301e-07       1.00542333e-05      -1.80758864e-05 
      -6.02580062e-07       1.00542327e-05      -1.80799379e-05 
       1.70027508e-07       1.00582865e-05      -1.80799400e-05 
       6.00808269e-07       1.00582872e-05      -1.80758885e-05 
      -1.75476744e-07       1.06606975e-05      -1.91635119e-05 
      -6.15695229e-07       1.06606969e-05      -1.91676666e-05 
       1.73677208e-07       1.06648540e-05      -1.91676688e-05 
       6.13895693e-07       1.06648546e-05      -1.91635141e-05 
      -1.75476744e-07       1.06606975e-05      -1.91635119e-05 
      -6.15695229e-07       1.06606969e-05      -1.91676666e-05 
       1.73677208e-07       1.06648540e-05      -1.91676688e-05 
       6.13895693e-07       1.06648546e-05      -1.91635141e-05 
      -1.79050845e-07       1.12801260e-05      -2.02741615e-05 
      -6.28450123e-07       1.12801253e-05      -2.02784193e-05 
       1.77223209e-07       1.12843857e-05      -2.02784216e-05 
       6.26622486e-07       1.12843864e-05      -2.02741637e-05 
      -1.79050845e-07       1.12801260e-05      -2.02741615e-05 
      -6.28450123e-07       1.12801253e-05      -2.02784193e-05 
       1.77223209e-07       1.12843857e-05      -2.02784216e-05 
       6.26622486e-07       1.12843864e-05      -2.02741637e-05 
      -1.82521599e-07       1.19121609e-05      -2.14071889e-05 
      -6.40844740e-07       1.19121602e-05      -2.14115499e-05 
       1.80665515e-07       1.19165238e-05      -2.14115523e-05 
       6.38988656e-07       1.19165246e-05      -2.14071913e-05 
      -1.82521599e-07       1.19121609e-05      -2.14071889e-05 
      -6.40844740e-07       1.19121602e-05      -2.14115499e-05 
       1.80665515e-07       1.19165238e-05      -2.14115523e-05 
       6.38988656e-07       1.19165246e-05      -2.14071913e-05 
      -1.85889001e-07       1.25564445e-05      -2.25619482e-05 
      -6.52879075e-07       1.25564438e-05      -2.25664123e-05 
       1.84004130e-07       1.25609106e-05      -2.25664147e-05 
       6.50994203e-07       1.25609114e-05      -2.25619506e-05 
      -1.85889001e-07       1.25564445e-05      -2.25619482e-05 
      -6.52879075e-07       1.25564438e-05      -2.25664123e-05 
       1.84004130e-07       1.25609106e-05      -2.25664147e-05 
       6.50994203e-07       1.25609114e-05      -2.25619506e-05 
      -1.89153047e-07       1.32126190e-05      -2.37377930e-05 
      -6.64553124e-07       1.32126182e-05      -2.37423603e-05 
       1.87239060e-07       1.32171883e-05      -2.37423628e-05 
       6.62639136e-07       1.32171891e-05      -2.37377956e-05 
      -1.89153047e-07       1.32126190e-05      -2.37377930e-05 
      -6.64553124e-07       1.32126182e-05      -2.37423603e-05 
       1.87239060e-07       1.32171883e-05      -2.37423628e-05 
       6.62639136e-07       1.32171891e-05      -2.37377956e-05 
      -1.92313731e-07       1.38803265e-05      -2.49340774e-05 
      -6.75866880e-07       1.38803257e-05      -2.49387478e-05 
       1.90370311e-07       1.38849990e-05      -2.49387504e-05 
       6.73923459e-07       1.38849998e-05      -2.49340800e-05 
      -1.92313731e-07       1.38803265e-05      -2.49340774e-05 
      -6.75866880e-07       1.38803257e-05      -2.49387478e-05 
       1.90370311e-07       1.38849990e-05      -2.49387504e-05 
       6.73923459e-07       1.38849998e-05      -2.49340800e-05 
      -1.95371048e-07       1.45592092e-05      -2.61501551e-05 
      -6.86820339e-07       1.45592084e-05      -2.61549287e-05 
       1.93397886e-07       1.45639850e-05      -2.61549314e-05 
       6.84847177e-07       1.45639858e-05      -2.61501578e-05 
      -1.95371048e-07       1.45592092e-05      -2.61501551e-05 
      -6.86820339e-07       1.45592084e-05      -2.61549287e-05 
       1.93397886e-07       1.45639850e-05      -2.61549314e-05 
       6.84847177e-07       1.45639858e-05      -2.61501578e-05 
      -1.98324992e-07       1.52489093e-05      -2.73853800e-05 
      -6.97413496e-07       1.52489085e-05      -2.73902568e-05 
       1.96321793e-07       1.52537883e-05      -2.73902595e-05 
       6.95410296e-07       1.52537892e-05      -2.73853828e-05 
      -1.98324992e-07       1.52489093e-05      -2.73853800e-05 
      -6.97413496e-07       1.52489085e-05      -2.73902568e-05 