# vtk DataFile Version 2.0
./output/onsasExample_BladeCantileverBeamPitch_windVel3DDynamic 3D/onsasExample_BladeCantileverBeamPitch_windVel3DDynamic 3D_0020.vtk
ASCII
DATASET UNSTRUCTURED_GRID

POINTS 800 float
      -1.519847e-23      -7.180703e-02      -7.180703e-02 
       2.095777e-23       7.180703e-02      -7.180703e-02 
       1.519847e-23       7.180703e-02       7.180703e-02 
      -2.095777e-23      -7.180703e-02       7.180703e-02 
       2.000000e-01      -7.180702e-02      -7.180706e-02 
       2.000000e-01       7.180705e-02      -7.180706e-02 
       2.000000e-01       7.180705e-02       7.180701e-02 
       2.000000e-01      -7.180702e-02       7.180701e-02 
       2.000000e-01      -7.180702e-02      -7.180706e-02 
       2.000000e-01       7.180705e-02      -7.180706e-02 
       2.000000e-01       7.180705e-02       7.180701e-02 
       2.000000e-01      -7.180702e-02       7.180701e-02 
       4.000000e-01      -7.180698e-02      -7.180713e-02 
       3.999999e-01       7.180709e-02      -7.180713e-02 
       4.000000e-01       7.180709e-02       7.180694e-02 
       4.000001e-01      -7.180698e-02       7.180694e-02 
       4.000000e-01      -7.180698e-02      -7.180713e-02 
       3.999999e-01       7.180709e-02      -7.180713e-02 
       4.000000e-01       7.180709e-02       7.180694e-02 
       4.000001e-01      -7.180698e-02       7.180694e-02 
       6.000000e-01      -7.180691e-02      -7.180725e-02 
       5.999999e-01       7.180715e-02      -7.180725e-02 
       6.000000e-01       7.180715e-02       7.180682e-02 
       6.000001e-01      -7.180691e-02       7.180682e-02 
       6.000000e-01      -7.180691e-02      -7.180725e-02 
       5.999999e-01       7.180715e-02      -7.180725e-02 
       6.000000e-01       7.180715e-02       7.180682e-02 
       6.000001e-01      -7.180691e-02       7.180682e-02 
       8.000000e-01      -7.180682e-02      -7.180741e-02 
       7.999999e-01       7.180725e-02      -7.180741e-02 
       8.000000e-01       7.180725e-02       7.180666e-02 
       8.000001e-01      -7.180682e-02       7.180666e-02 
       8.000000e-01      -7.180682e-02      -7.180741e-02 
       7.999999e-01       7.180725e-02      -7.180741e-02 
       8.000000e-01       7.180725e-02       7.180666e-02 
       8.000001e-01      -7.180682e-02       7.180666e-02 
       1.000000e+00      -7.180670e-02      -7.180762e-02 
       9.999999e-01       7.180737e-02      -7.180762e-02 
       1.000000e+00       7.180737e-02       7.180645e-02 
       1.000000e+00      -7.180670e-02       7.180645e-02 
       1.000000e+00      -7.180670e-02      -7.180762e-02 
       9.999999e-01       7.180737e-02      -7.180762e-02 
       1.000000e+00       7.180737e-02       7.180645e-02 
       1.000000e+00      -7.180670e-02       7.180645e-02 
       1.200000e+00      -7.180656e-02      -7.180787e-02 
       1.200000e+00       7.180751e-02      -7.180787e-02 
       1.200000e+00       7.180751e-02       7.180620e-02 
       1.200000e+00      -7.180656e-02       7.180620e-02 
       1.200000e+00      -7.180656e-02      -7.180787e-02 
       1.200000e+00       7.180751e-02      -7.180787e-02 
       1.200000e+00       7.180751e-02       7.180620e-02 
       1.200000e+00      -7.180656e-02       7.180620e-02 
       1.400000e+00      -7.180639e-02      -7.180816e-02 
       1.400000e+00       7.180768e-02      -7.180816e-02 
       1.400000e+00       7.180768e-02       7.180591e-02 
       1.400000e+00      -7.180639e-02       7.180591e-02 
       1.400000e+00      -7.180639e-02      -7.180816e-02 
       1.400000e+00       7.180768e-02      -7.180816e-02 
       1.400000e+00       7.180768e-02       7.180591e-02 
       1.400000e+00      -7.180639e-02       7.180591e-02 
       1.600000e+00      -7.180620e-02      -7.180849e-02 
       1.600000e+00       7.180787e-02      -7.180849e-02 
       1.600000e+00       7.180787e-02       7.180557e-02 
       1.600000e+00      -7.180620e-02       7.180557e-02 
       1.600000e+00      -7.180620e-02      -7.180849e-02 
       1.600000e+00       7.180787e-02      -7.180849e-02 
       1.600000e+00       7.180787e-02       7.180557e-02 
       1.600000e+00      -7.180620e-02       7.180557e-02 
       1.800000e+00      -7.180598e-02      -7.180887e-02 
       1.800000e+00       7.180808e-02      -7.180887e-02 
       1.800000e+00       7.180808e-02       7.180520e-02 
       1.800000e+00      -7.180598e-02       7.180520e-02 
       1.800000e+00      -7.180598e-02      -7.180887e-02 
       1.800000e+00       7.180808e-02      -7.180887e-02 
       1.800000e+00       7.180808e-02       7.180520e-02 
       1.800000e+00      -7.180598e-02       7.180520e-02 
       2.000000e+00      -7.180575e-02      -7.180928e-02 
       2.000000e+00       7.180832e-02      -7.180928e-02 
       2.000000e+00       7.180832e-02       7.180478e-02 
       2.000000e+00      -7.180574e-02       7.180478e-02 
       2.000000e+00      -7.180575e-02      -7.180928e-02 
       2.000000e+00       7.180832e-02      -7.180928e-02 
       2.000000e+00       7.180832e-02       7.180478e-02 
       2.000000e+00      -7.180574e-02       7.180478e-02 
       2.200000e+00      -7.180549e-02      -7.180974e-02 
       2.200000e+00       7.180858e-02      -7.180974e-02 
       2.200000e+00       7.180858e-02       7.180433e-02 
       2.200000e+00      -7.180548e-02       7.180433e-02 
       2.200000e+00      -7.180549e-02      -7.180974e-02 
       2.200000e+00       7.180858e-02      -7.180974e-02 
       2.200000e+00       7.180858e-02       7.180433e-02 
       2.200000e+00      -7.180548e-02       7.180433e-02 
       2.400000e+00      -7.180520e-02      -7.181023e-02 
       2.400000e+00       7.180886e-02      -7.181023e-02 
       2.400000e+00       7.180886e-02       7.180384e-02 
       2.400000e+00      -7.180520e-02       7.180384e-02 
       2.400000e+00      -7.180520e-02      -7.181023e-02 
       2.400000e+00       7.180886e-02      -7.181023e-02 
       2.400000e+00       7.180886e-02       7.180384e-02 
       2.400000e+00      -7.180520e-02       7.180384e-02 
       2.600000e+00      -7.180490e-02      -7.181075e-02 
       2.600000e+00       7.180917e-02      -7.181076e-02 
       2.600000e+00       7.180917e-02       7.180331e-02 
       2.600000e+00      -7.180490e-02       7.180331e-02 
       2.600000e+00      -7.180490e-02      -7.181075e-02 
       2.600000e+00       7.180917e-02      -7.181076e-02 
       2.600000e+00       7.180917e-02       7.180331e-02 
       2.600000e+00      -7.180490e-02       7.180331e-02 
       2.800000e+00      -7.180458e-02      -7.181132e-02 
       2.800000e+00       7.180949e-02      -7.181132e-02 
       2.800000e+00       7.180949e-02       7.180275e-02 
       2.800000e+00      -7.180458e-02       7.180275e-02 
       2.800000e+00      -7.180458e-02      -7.181132e-02 
       2.800000e+00       7.180949e-02      -7.181132e-02 
       2.800000e+00       7.180949e-02       7.180275e-02 
       2.800000e+00      -7.180458e-02       7.180275e-02 
       3.000000e+00      -7.180423e-02      -7.181192e-02 
       3.000000e+00       7.180983e-02      -7.181192e-02 
       3.000000e+00       7.180984e-02       7.180215e-02 
       3.000000e+00      -7.180423e-02       7.180215e-02 
       3.000000e+00      -7.180423e-02      -7.181192e-02 
       3.000000e+00       7.180983e-02      -7.181192e-02 
       3.000000e+00       7.180984e-02       7.180215e-02 
       3.000000e+00      -7.180423e-02       7.180215e-02 
       3.200000e+00      -7.180387e-02      -7.181255e-02 
       3.200000e+00       7.181020e-02      -7.181255e-02 
       3.200000e+00       7.181020e-02       7.180151e-02 
       3.200000e+00      -7.180387e-02       7.180152e-02 
       3.200000e+00      -7.180387e-02      -7.181255e-02 
       3.200000e+00       7.181020e-02      -7.181255e-02 
       3.200000e+00       7.181020e-02       7.180151e-02 
       3.200000e+00      -7.180387e-02       7.180152e-02 
       3.400000e+00      -7.180349e-02      -7.181322e-02 
       3.400000e+00       7.181058e-02      -7.181322e-02 
       3.400000e+00       7.181058e-02       7.180085e-02 
       3.400000e+00      -7.180348e-02       7.180085e-02 
       3.400000e+00      -7.180349e-02      -7.181322e-02 
       3.400000e+00       7.181058e-02      -7.181322e-02 
       3.400000e+00       7.181058e-02       7.180085e-02 
       3.400000e+00      -7.180348e-02       7.180085e-02 
       3.600000e+00      -7.180308e-02      -7.181392e-02 
       3.600000e+00       7.181098e-02      -7.181392e-02 
       3.600000e+00       7.181099e-02       7.180015e-02 
       3.600000e+00      -7.180308e-02       7.180015e-02 
       3.600000e+00      -7.180308e-02      -7.181392e-02 
       3.600000e+00       7.181098e-02      -7.181392e-02 
       3.600000e+00       7.181099e-02       7.180015e-02 
       3.600000e+00      -7.180308e-02       7.180015e-02 
       3.800000e+00      -7.180266e-02      -7.181465e-02 
       3.800000e+00       7.181140e-02      -7.181465e-02 
       3.800000e+00       7.181141e-02       7.179942e-02 
       3.800000e+00      -7.180266e-02       7.179942e-02 
       3.800000e+00      -7.180266e-02      -7.181465e-02 
       3.800000e+00       7.181140e-02      -7.181465e-02 
       3.800000e+00       7.181141e-02       7.179942e-02 
       3.800000e+00      -7.180266e-02       7.179942e-02 
       4.000000e+00      -7.180222e-02      -7.181541e-02 
       4.000000e+00       7.181184e-02      -7.181541e-02 
       4.000000e+00       7.181185e-02       7.179865e-02 
       4.000000e+00      -7.180222e-02       7.179866e-02 
       4.000000e+00      -7.180222e-02      -7.181541e-02 
       4.000000e+00       7.181184e-02      -7.181541e-02 
       4.000000e+00       7.181185e-02       7.179865e-02 
       4.000000e+00      -7.180222e-02       7.179866e-02 
       4.200000e+00      -7.180177e-02      -7.181620e-02 
[...]
POINT_DATA       800 
VECTORS Displacements float
      -1.51984718e-23       0.00000000e+00      -1.38777878e-17 
       2.09577668e-23       0.00000000e+00       0.00000000e+00 
       1.51984718e-23       0.00000000e+00       1.38777878e-17 
      -2.09577668e-23       0.00000000e+00       0.00000000e+00 
      -7.38760961e-09       1.35984462e-08      -2.38674066e-08 
      -2.69626969e-08       1.35984449e-08      -2.40189914e-08 
       7.30812372e-09       1.37500344e-08      -2.40189955e-08 
       2.68832110e-08       1.37500358e-08      -2.38674106e-08 
      -7.38760961e-09       1.35984462e-08      -2.38674066e-08 
      -2.69626969e-08       1.35984449e-08      -2.40189914e-08 
       7.30812372e-09       1.37500344e-08      -2.40189955e-08 
       2.68832110e-08       1.37500358e-08      -2.38674106e-08 
      -1.46194704e-08       5.41941819e-08      -9.49806954e-08 
      -5.33913773e-08       5.41941766e-08      -9.52838606e-08 
       1.44603576e-08       5.44973602e-08      -9.52838766e-08 
       5.32322644e-08       5.44973654e-08      -9.49807114e-08 
      -1.46194704e-08       5.41941819e-08      -9.49806954e-08 
      -5.33913773e-08       5.41941766e-08      -9.52838606e-08 
       1.44603576e-08       5.44973602e-08      -9.52838766e-08 
       5.32322644e-08       5.44973654e-08      -9.49807114e-08 
      -2.16955810e-08       1.21260423e-07      -2.12379088e-07 
      -7.92860395e-08       1.21260412e-07      -2.12833830e-07 
       2.14567030e-08       1.21715193e-07      -2.12833865e-07 
       7.90471616e-08       1.21715205e-07      -2.12379124e-07 
      -2.16955810e-08       1.21260423e-07      -2.12379088e-07 
      -7.92860395e-08       1.21260412e-07      -2.12833830e-07 
       2.14567030e-08       1.21715193e-07      -2.12833865e-07 
       7.90471616e-08       1.21715205e-07      -2.12379124e-07 
      -2.86159401e-08       2.14270387e-07      -3.75101807e-07 
      -1.04646683e-07       2.14270366e-07      -3.75708121e-07 
       2.82971613e-08       2.14876750e-07      -3.75708182e-07 
       1.04327904e-07       2.14876770e-07      -3.75101869e-07 
      -2.86159401e-08       2.14270387e-07      -3.75101807e-07 
      -1.04646683e-07       2.14270366e-07      -3.75708121e-07 
       2.82971613e-08       2.14876750e-07      -3.75708182e-07 
       1.04327904e-07       2.14876770e-07      -3.75101869e-07 
      -3.53805458e-08       3.32697288e-07      -5.82188074e-07 
      -1.29473305e-07       3.32697257e-07      -5.82945956e-07 
       3.49817342e-08       3.33455247e-07      -5.82946050e-07 
       1.29074493e-07       3.33455278e-07      -5.82188168e-07 
      -3.53805458e-08       3.32697288e-07      -5.82188074e-07 
      -1.29473305e-07       3.32697257e-07      -5.82945956e-07 
       3.49817342e-08       3.33455247e-07      -5.82946050e-07 
       1.29074493e-07       3.33455278e-07      -5.82188168e-07 
      -4.19893975e-08       4.76014344e-07      -8.32677110e-07 
      -1.53765905e-07       4.76014301e-07      -8.33586557e-07 
       4.15104229e-08       4.76923900e-07      -8.33586690e-07 
       1.53286930e-07       4.76923943e-07      -8.32677243e-07 
      -4.19893975e-08       4.76014344e-07      -8.32677110e-07 
      -1.53765905e-07       4.76014301e-07      -8.33586557e-07 
       4.15104229e-08       4.76923900e-07      -8.33586690e-07 
       1.53286930e-07       4.76923943e-07      -8.32677243e-07 
      -4.84424929e-08       6.43694771e-07      -1.12560814e-06 
      -1.77524481e-07       6.43694713e-07      -1.12666915e-06 
       4.78832285e-08       6.44755925e-07      -1.12666932e-06 
       1.76965217e-07       6.44755983e-07      -1.12560831e-06 
      -4.84424929e-08       6.43694771e-07      -1.12560814e-06 
      -1.77524481e-07       6.43694713e-07      -1.12666915e-06 
       4.78832285e-08       6.44755925e-07      -1.12666932e-06 
       1.76965217e-07       6.44755983e-07      -1.12560831e-06 
      -5.47398316e-08       8.35211785e-07      -1.46002038e-06 
      -2.00749033e-07       8.35211711e-07      -1.46123295e-06 
       5.41001528e-08       8.36424538e-07      -1.46123317e-06 
       2.00109354e-07       8.36424612e-07      -1.46002060e-06 
      -5.47398316e-08       8.35211785e-07      -1.46002038e-06 
      -2.00749033e-07       8.35211711e-07      -1.46123295e-06 
       5.41001528e-08       8.36424538e-07      -1.46123317e-06 
       2.00109354e-07       8.36424612e-07      -1.46002060e-06 
      -6.08814112e-08       1.05003860e-06      -1.83495305e-06 
      -2.23439558e-07       1.05003851e-06      -1.83631718e-06 
       6.01611976e-08       1.05140296e-06      -1.83631746e-06 
       2.22719344e-07       1.05140305e-06      -1.83495333e-06 
      -6.08814112e-08       1.05003860e-06      -1.83495305e-06 
      -2.23439558e-07       1.05003851e-06      -1.83631718e-06 
       6.01611976e-08       1.05140296e-06      -1.83631746e-06 
       2.22719344e-07       1.05140305e-06      -1.83495333e-06 
      -6.68672309e-08       1.28764844e-06      -2.24944539e-06 
      -2.45596054e-07       1.28764833e-06      -2.25096106e-06 
       6.60663639e-08       1.28916439e-06      -2.25096140e-06 
       2.44795187e-07       1.28916451e-06      -2.24944572e-06 
      -6.68672306e-08       1.28764844e-06      -2.24944539e-06 
      -2.45596054e-07       1.28764833e-06      -2.25096106e-06 
       6.60663639e-08       1.28916439e-06      -2.25096140e-06 
       2.44795188e-07       1.28916451e-06      -2.24944572e-06 
      -7.26935285e-08       1.54753190e-06      -2.70256369e-06 
      -2.67234952e-07       1.54753176e-06      -2.70421492e-06 
       7.18399535e-08       1.54918346e-06      -2.70421532e-06 
       2.66381377e-07       1.54918359e-06      -2.70256409e-06 
      -7.26935285e-08       1.54753190e-06      -2.70256369e-06 
      -2.67234952e-07       1.54753176e-06      -2.70421492e-06 
       7.18399535e-08       1.54918346e-06      -2.70421532e-06 
       2.66381377e-07       1.54918359e-06      -2.70256409e-06 
      -7.83839700e-08       1.82920095e-06      -3.19343243e-06 
      -2.88399983e-07       1.82920080e-06      -3.19521922e-06 
       7.74773805e-08       1.83098813e-06      -3.19521969e-06 
       2.87493394e-07       1.83098828e-06      -3.19343289e-06 
      -7.83839700e-08       1.82920095e-06      -3.19343243e-06 
      -2.88399983e-07       1.82920080e-06      -3.19521922e-06 
       7.74773805e-08       1.83098813e-06      -3.19521969e-06 
       2.87493394e-07       1.83098828e-06      -3.19343289e-06 
      -8.39385534e-08       2.13218489e-06      -3.72120207e-06 
      -3.09091145e-07       2.13218471e-06      -3.72312442e-06 
       8.29786466e-08       2.13410768e-06      -3.72312495e-06 
       3.08131238e-07       2.13410785e-06      -3.72120260e-06 
      -8.39385534e-08       2.13218489e-06      -3.72120207e-06 
      -3.09091145e-07       2.13218471e-06      -3.72312442e-06 
       8.29786466e-08       2.13410768e-06      -3.72312495e-06 
       3.08131238e-07       2.13410785e-06      -3.72120260e-06 
      -8.93572740e-08       2.45601298e-06      -4.28502307e-06 
      -3.29308433e-07       2.45601278e-06      -4.28708098e-06 
       8.83437563e-08       2.45807139e-06      -4.28708158e-06 
       3.28294916e-07       2.45807159e-06      -4.28502368e-06 
      -8.93572740e-08       2.45601298e-06      -4.28502307e-06 
      -3.29308433e-07       2.45601278e-06      -4.28708098e-06 
       8.83437563e-08       2.45807139e-06      -4.28708158e-06 
       3.28294916e-07       2.45807159e-06      -4.28502368e-06 
      -9.46401295e-08       2.80021452e-06      -4.88404590e-06 
      -3.49051845e-07       2.80021429e-06      -4.88623935e-06 
       9.35727122e-08       2.80240853e-06      -4.88624004e-06 
       3.47984428e-07       2.80240876e-06      -4.88404658e-06 
      -9.46401295e-08       2.80021452e-06      -4.88404590e-06 
      -3.49051845e-07       2.80021429e-06      -4.88623935e-06 
       9.35727122e-08       2.80240853e-06      -4.88624004e-06 
       3.47984428e-07       2.80240876e-06      -4.88404658e-06 
      -9.97871155e-08       3.16431877e-06      -5.51742100e-06 
      -3.68321377e-07       3.16431852e-06      -5.51975001e-06 
       9.86655184e-08       3.16664840e-06      -5.51975077e-06 
       3.67199780e-07       3.16664865e-06      -5.51742176e-06 
      -9.97871155e-08       3.16431877e-06      -5.51742100e-06 
      -3.68321377e-07       3.16431852e-06      -5.51975001e-06 
       9.86655184e-08       3.16664840e-06      -5.51975077e-06 
       3.67199780e-07       3.16664865e-06      -5.51742176e-06 
      -1.04798228e-07       3.54785501e-06      -6.18429885e-06 
      -3.87117025e-07       3.54785473e-06      -6.18676340e-06 
       1.03622178e-07       3.55032025e-06      -6.18676424e-06 
       3.85940975e-07       3.55032053e-06      -6.18429969e-06 
      -1.04798228e-07       3.54785501e-06      -6.18429885e-06 
      -3.87117025e-07       3.54785473e-06      -6.18676340e-06 
       1.03622178e-07       3.55032025e-06      -6.18676424e-06 
       3.85940975e-07       3.55032053e-06      -6.18429969e-06 
      -1.09673465e-07       3.95035253e-06      -6.88382989e-06 
      -4.05438786e-07       3.95035223e-06      -6.88642999e-06 
       1.08442695e-07       3.95295339e-06      -6.88643091e-06 
       4.04208016e-07       3.95295369e-06      -6.88383081e-06 
      -1.09673465e-07       3.95035253e-06      -6.88382989e-06 
      -4.05438786e-07       3.95035223e-06      -6.88642999e-06 
       1.08442695e-07       3.95295339e-06      -6.88643091e-06 
       4.04208016e-07       3.95295369e-06      -6.88383081e-06 
      -1.14412822e-07       4.37134060e-06      -7.61516459e-06 
      -4.23286656e-07       4.37134027e-06      -7.61790024e-06 
       1.13127073e-07       4.37407708e-06      -7.61790124e-06 
       4.22000907e-07       4.37407741e-06      -7.61516559e-06 
      -1.14412822e-07       4.37134060e-06      -7.61516459e-06 
      -4.23286656e-07       4.37134027e-06      -7.61790024e-06 
       1.13127073e-07       4.37407708e-06      -7.61790124e-06 
       4.22000907e-07       4.37407741e-06      -7.61516559e-06 
      -1.19016296e-07       4.81034851e-06      -8.37745341e-06 
      -4.40660634e-07       4.81034815e-06      -8.38032461e-06 
       1.17675313e-07       4.81322060e-06      -8.38032569e-06 
       4.39319650e-07       4.81322096e-06      -8.37745449e-06 
      -1.19016297e-07       4.81034851e-06      -8.37745341e-06 
      -4.40660634e-07       4.81034815e-06      -8.38032461e-06 
       1.17675313e-07       4.81322060e-06      -8.38032569e-06 
       4.39319650e-07       4.81322096e-06      -8.37745449e-06 
      -1.23484075e-07       5.26692288e-06      -9.16987366e-06 
      -4.57581044e-07       5.26692249e-06      -9.17286442e-06 
       1.22107288e-07       5.26991460e-06      -9.17286559e-06 
       4.56204256e-07       5.26991499e-06      -9.16987483e-06 
      -1.23484075e-07       5.26692288e-06      -9.16987366e-06 
      -4.57581044e-07       5.26692249e-06      -9.17286442e-06 
       1.22107288e-07       5.26991460e-06      -9.17286559e-06 
       4.56204256e-07       5.26991499e-06      -9.16987483e-06 
      -1.27835248e-07       5.74063165e-06      -9.99165967e-06 
      -4.74087005e-07       5.74063124e-06      -9.99476999e-06 
       1.26422296e-07       5.74374301e-06      -9.99477125e-06 
       4.72674053e-07       5.74374343e-06      -9.99166092e-06 
      -1.27835248e-07       5.74063165e-06      -9.99165967e-06 
      -4.74087005e-07       5.74063124e-06      -9.99476999e-06 
       1.26422296e-07       5.74374301e-06      -9.99477125e-06 
       4.72674053e-07       5.74374343e-06      -9.99166092e-06 
      -1.32069809e-07       6.23106005e-06      -1.08420714e-05 
      -4.90178512e-07       6.23105961e-06      -1.08453013e-05 
       1.30620344e-07       6.23429105e-06      -1.08453026e-05 
       4.88729047e-07       6.23429149e-06      -1.08420727e-05 
      -1.32069809e-07       6.23106005e-06      -1.08420714e-05 
      -4.90178512e-07       6.23105961e-06      -1.08453013e-05 
       1.30620344e-07       6.23429105e-06      -1.08453026e-05 
       4.88729047e-07       6.23429149e-06      -1.08420727e-05 
      -1.36187757e-07       6.73779330e-06      -1.17203687e-05 
      -5.05855563e-07       6.73779282e-06      -1.17237182e-05 
       1.34701435e-07       6.74114392e-06      -1.17237196e-05 
       5.04369241e-07       6.74114440e-06      -1.17203701e-05 
      -1.36187757e-07       6.73779330e-06      -1.17203687e-05 
      -5.05855563e-07       6.73779282e-06      -1.17237182e-05 
       1.34701435e-07       6.74114392e-06      -1.17237196e-05 
       5.04369241e-07       6.74114440e-06      -1.17203701e-05 
      -1.40189085e-07       7.26041660e-06      -1.26258116e-05 
      -5.21118150e-07       7.26041609e-06      -1.26292806e-05 
       1.38665574e-07       7.26388686e-06      -1.26292822e-05 
       5.19594639e-07       7.26388737e-06      -1.26258131e-05 
      -1.40189085e-07       7.26041660e-06      -1.26258116e-05 
      -5.21118150e-07       7.26041609e-06      -1.26292806e-05 
       1.38665574e-07       7.26388686e-06      -1.26292822e-05 
       5.19594639e-07       7.26388737e-06      -1.26258131e-05 
      -1.44073789e-07       7.79851518e-06      -1.35576601e-05 
      -5.35966271e-07       7.79851464e-06      -1.35612486e-05 
       1.42512765e-07       7.80210507e-06      -1.35612502e-05 
       5.34405247e-07       7.80210561e-06      -1.35576617e-05 
      -1.44073789e-07       7.79851518e-06      -1.35576601e-05 
      -5.35966271e-07       7.79851464e-06      -1.35612486e-05 
       1.42512765e-07       7.80210507e-06      -1.35612502e-05 
       5.34405247e-07       7.80210561e-06      -1.35576617e-05 
      -1.47841865e-07       8.35167425e-06      -1.45151740e-05 
      -5.50399920e-07       8.35167369e-06      -1.45188821e-05 
       1.46243013e-07       8.35538378e-06      -1.45188838e-05 
       5.48801069e-07       8.35538435e-06      -1.45151757e-05 
      -1.47841865e-07       8.35167425e-06      -1.45151740e-05 
      -5.50399920e-07       8.35167369e-06      -1.45188821e-05 
       1.46243013e-07       8.35538378e-06      -1.45188838e-05 
       5.48801069e-07       8.35538435e-06      -1.45151757e-05 
      -1.51493307e-07       8.91947904e-06      -1.54976133e-05 
      -5.64419094e-07       8.91947844e-06      -1.55014410e-05 
       1.49856325e-07       8.92330820e-06      -1.55014427e-05 
       5.62782112e-07       8.92330880e-06      -1.54976150e-05 
      -1.51493307e-07       8.91947904e-06      -1.54976133e-05 
      -5.64419094e-07       8.91947844e-06      -1.55014410e-05 
       1.49856325e-07       8.92330820e-06      -1.55014427e-05 
       5.62782112e-07       8.92330880e-06      -1.54976150e-05 
      -1.55028111e-07       9.50151475e-06      -1.65042379e-05 
      -5.78023787e-07       9.50151413e-06      -1.65081852e-05 
       1.53352700e-07       9.50546355e-06      -1.65081870e-05 
       5.76348375e-07       9.50546417e-06      -1.65042398e-05 
      -1.55028111e-07       9.50151475e-06      -1.65042379e-05 
      -5.78023787e-07       9.50151413e-06      -1.65081852e-05 
       1.53352700e-07       9.50546355e-06      -1.65081870e-05 
       5.76348375e-07       9.50546417e-06      -1.65042398e-05 
      -1.58446275e-07       1.00973666e-05      -1.75343078e-05 
      -5.91213996e-07       1.00973660e-05      -1.75383747e-05 
       1.56732145e-07       1.01014350e-05      -1.75383766e-05 
       5.89499866e-07       1.01014357e-05      -1.75343098e-05 
      -1.58446275e-07       1.00973666e-05      -1.75343078e-05 
      -5.91213996e-07       1.00973660e-05      -1.75383747e-05 
       1.56732145e-07       1.01014350e-05      -1.75383766e-05 
       5.89499867e-07       1.01014357e-05      -1.75343098e-05 
      -1.61750938e-07       1.07066372e-05      -1.85871096e-05 
      -6.04012954e-07       1.07066365e-05      -1.85912800e-05 
       1.60010993e-07       1.07108093e-05      -1.85912820e-05 
       6.02273009e-07       1.07108099e-05      -1.85871116e-05 
      -1.61750938e-07       1.07066372e-05      -1.85871096e-05 
      -6.04012954e-07       1.07066365e-05      -1.85912800e-05 
       1.60010993e-07       1.07108093e-05      -1.85912820e-05 
       6.02273009e-07       1.07108099e-05      -1.85871116e-05 
      -1.64957561e-07       1.13289502e-05      -1.96619853e-05 
      -6.16456119e-07       1.13289495e-05      -1.96662593e-05 
       1.63191460e-07       1.13332260e-05      -1.96662615e-05 
       6.14690019e-07       1.13332267e-05      -1.96619874e-05 
      -1.64957561e-07       1.13289502e-05      -1.96619853e-05 
      -6.16456119e-07       1.13289495e-05      -1.96662593e-05 
       1.63191460e-07       1.13332260e-05      -1.96662615e-05 
       6.14690019e-07       1.13332267e-05      -1.96619874e-05 
      -1.68066139e-07       1.19639468e-05      -2.07583027e-05 
      -6.28543484e-07       1.19639460e-05      -2.07626803e-05 
       1.66273555e-07       1.19683262e-05      -2.07626825e-05 
       6.26750900e-07       1.19683269e-05      -2.07583048e-05 
      -1.68066139e-07       1.19639468e-05      -2.07583027e-05 
      -6.28543484e-07       1.19639460e-05      -2.07626803e-05 
       1.66273555e-07       1.19683262e-05      -2.07626825e-05 
       6.26750900e-07       1.19683269e-05      -2.07583048e-05 
      -1.71076667e-07       1.26112679e-05      -2.18754290e-05 
      -6.40275045e-07       1.26112671e-05      -2.18799103e-05 
       1.69257279e-07       1.26157510e-05      -2.18799125e-05 
       6.38455656e-07       1.26157517e-05      -2.18754313e-05 
      -1.71076667e-07       1.26112679e-05      -2.18754290e-05 
      -6.40275045e-07       1.26112671e-05      -2.18799103e-05 
       1.69257279e-07       1.26157510e-05      -2.18799125e-05 
       6.38455656e-07       1.26157517e-05      -2.18754313e-05 
      -1.73989143e-07       1.32705546e-05      -2.30127320e-05 
      -6.51650797e-07       1.32705538e-05      -2.30173168e-05 
       1.72142639e-07       1.32751414e-05      -2.30173192e-05 
       6.49804294e-07       1.32751422e-05      -2.30127344e-05 
      -1.73989143e-07       1.32705546e-05      -2.30127320e-05 
      -6.51650797e-07       1.32705538e-05      -2.30173168e-05 
       1.72142639e-07       1.32751414e-05      -2.30173192e-05 
       6.49804294e-07       1.32751422e-05      -2.30127344e-05 
      -1.76803558e-07       1.39414480e-05      -2.41695791e-05 
      -6.62670737e-07       1.39414472e-05      -2.41742675e-05 
       1.74929639e-07       1.39461385e-05      -2.41742699e-05 
       6.60796817e-07       1.39461393e-05      -2.41695815e-05 
      -1.76803558e-07       1.39414480e-05      -2.41695791e-05 
      -6.62670737e-07       1.39414472e-05      -2.41742675e-05 
       1.74929639e-07       1.39461385e-05      -2.41742699e-05 
       6.60796817e-07       1.39461393e-05      -2.41695815e-05 
      -1.79519911e-07       1.46235892e-05      -2.53453377e-05 
      -6.73334858e-07       1.46235883e-05      -2.53501297e-05 
       1.77618284e-07       1.46283832e-05      -2.53501322e-05 
       6.71433231e-07       1.46283841e-05      -2.53453402e-05 
      -1.79519911e-07       1.46235892e-05      -2.53453377e-05 
      -6.73334858e-07       1.46235883e-05      -2.53501297e-05 
       1.77618284e-07       1.46283832e-05      -2.53501322e-05 
       6.71433231e-07       1.46283841e-05      -2.53453402e-05 
      -1.82138193e-07       1.53166190e-05      -2.65393755e-05 
      -6.83643155e-07       1.53166182e-05      -2.65442710e-05 
       1.80208580e-07       1.53215168e-05      -2.65442736e-05 
       6.81713541e-07       1.53215176e-05      -2.65393781e-05 
      -1.82138193e-07       1.53166190e-05      -2.65393755e-05 
      -6.83643155e-07       1.53166182e-05      -2.65442710e-05 