# vtk DataFile Version 2.0
./output/onsasExample_BladeCantileverBeamPitch_windVel3DDynamic 3D/onsasExample_BladeCantileverBeamPitch_windVel3DDynamic 3D_0001.vtk
ASCII
DATASET UNSTRUCTURED_GRID

POINTS 800 float
      -5.210504e-23      -7.180703e-02      -7.180703e-02 
      -2.021330e-23       7.180703e-02      -7.180703e-02 
       5.210504e-23       7.180703e-02       7.180703e-02 
       2.021330e-23      -7.180703e-02       7.180703e-02 
       2.000000e-01      -7.180703e-02      -7.180699e-02 
       2.000000e-01       7.180703e-02      -7.180699e-02 
       2.000000e-01       7.180703e-02       7.180708e-02 
       2.000000e-01      -7.180703e-02       7.180708e-02 
       2.000000e-01      -7.180703e-02      -7.180699e-02 
       2.000000e-01       7.180703e-02      -7.180699e-02 
       2.000000e-01       7.180703e-02       7.180708e-02 
       2.000000e-01      -7.180703e-02       7.180708e-02 
       4.000001e-01      -7.180703e-02      -7.180686e-02 
       4.000001e-01       7.180704e-02      -7.180686e-02 
       3.999999e-01       7.180704e-02       7.180721e-02 
       3.999999e-01      -7.180703e-02       7.180721e-02 
       4.000001e-01      -7.180703e-02      -7.180686e-02 
       4.000001e-01       7.180704e-02      -7.180686e-02 
       3.999999e-01       7.180704e-02       7.180721e-02 
       3.999999e-01      -7.180703e-02       7.180721e-02 
       6.000001e-01      -7.180702e-02      -7.180664e-02 
       6.000001e-01       7.180704e-02      -7.180664e-02 
       5.999999e-01       7.180704e-02       7.180742e-02 
       5.999999e-01      -7.180702e-02       7.180742e-02 
       6.000001e-01      -7.180702e-02      -7.180664e-02 
       6.000001e-01       7.180704e-02      -7.180664e-02 
       5.999999e-01       7.180704e-02       7.180742e-02 
       5.999999e-01      -7.180702e-02       7.180742e-02 
       8.000001e-01      -7.180701e-02      -7.180634e-02 
       8.000001e-01       7.180705e-02      -7.180634e-02 
       7.999999e-01       7.180705e-02       7.180772e-02 
       7.999999e-01      -7.180701e-02       7.180772e-02 
       8.000001e-01      -7.180701e-02      -7.180634e-02 
       8.000001e-01       7.180705e-02      -7.180634e-02 
       7.999999e-01       7.180705e-02       7.180772e-02 
       7.999999e-01      -7.180701e-02       7.180772e-02 
       1.000000e+00      -7.180700e-02      -7.180596e-02 
       1.000000e+00       7.180706e-02      -7.180596e-02 
       9.999998e-01       7.180706e-02       7.180811e-02 
       9.999999e-01      -7.180700e-02       7.180811e-02 
       1.000000e+00      -7.180700e-02      -7.180596e-02 
       1.000000e+00       7.180706e-02      -7.180596e-02 
       9.999998e-01       7.180706e-02       7.180811e-02 
       9.999999e-01      -7.180700e-02       7.180811e-02 
       1.200000e+00      -7.180699e-02      -7.180550e-02 
       1.200000e+00       7.180707e-02      -7.180550e-02 
       1.200000e+00       7.180707e-02       7.180857e-02 
       1.200000e+00      -7.180699e-02       7.180857e-02 
       1.200000e+00      -7.180699e-02      -7.180550e-02 
       1.200000e+00       7.180707e-02      -7.180550e-02 
       1.200000e+00       7.180707e-02       7.180857e-02 
       1.200000e+00      -7.180699e-02       7.180857e-02 
       1.400000e+00      -7.180698e-02      -7.180496e-02 
       1.400000e+00       7.180709e-02      -7.180496e-02 
       1.400000e+00       7.180709e-02       7.180911e-02 
       1.400000e+00      -7.180698e-02       7.180911e-02 
       1.400000e+00      -7.180698e-02      -7.180496e-02 
       1.400000e+00       7.180709e-02      -7.180496e-02 
       1.400000e+00       7.180709e-02       7.180911e-02 
       1.400000e+00      -7.180698e-02       7.180911e-02 
       1.600000e+00      -7.180696e-02      -7.180434e-02 
       1.600000e+00       7.180710e-02      -7.180434e-02 
       1.600000e+00       7.180710e-02       7.180973e-02 
       1.600000e+00      -7.180696e-02       7.180973e-02 
       1.600000e+00      -7.180696e-02      -7.180434e-02 
       1.600000e+00       7.180710e-02      -7.180434e-02 
       1.600000e+00       7.180710e-02       7.180973e-02 
       1.600000e+00      -7.180696e-02       7.180973e-02 
       1.800000e+00      -7.180694e-02      -7.180364e-02 
       1.800000e+00       7.180712e-02      -7.180364e-02 
       1.800000e+00       7.180712e-02       7.181042e-02 
       1.800000e+00      -7.180694e-02       7.181042e-02 
       1.800000e+00      -7.180694e-02      -7.180364e-02 
       1.800000e+00       7.180712e-02      -7.180364e-02 
       1.800000e+00       7.180712e-02       7.181042e-02 
       1.800000e+00      -7.180694e-02       7.181042e-02 
       2.000000e+00      -7.180692e-02      -7.180288e-02 
       2.000000e+00       7.180714e-02      -7.180288e-02 
       2.000000e+00       7.180714e-02       7.181119e-02 
       2.000000e+00      -7.180692e-02       7.181119e-02 
       2.000000e+00      -7.180692e-02      -7.180288e-02 
       2.000000e+00       7.180714e-02      -7.180288e-02 
       2.000000e+00       7.180714e-02       7.181119e-02 
       2.000000e+00      -7.180692e-02       7.181119e-02 
       2.200000e+00      -7.180690e-02      -7.180204e-02 
       2.200000e+00       7.180716e-02      -7.180204e-02 
       2.200000e+00       7.180716e-02       7.181203e-02 
       2.200000e+00      -7.180690e-02       7.181203e-02 
       2.200000e+00      -7.180690e-02      -7.180204e-02 
       2.200000e+00       7.180716e-02      -7.180204e-02 
       2.200000e+00       7.180716e-02       7.181203e-02 
       2.200000e+00      -7.180690e-02       7.181203e-02 
       2.400000e+00      -7.180688e-02      -7.180113e-02 
       2.400000e+00       7.180719e-02      -7.180113e-02 
       2.400000e+00       7.180719e-02       7.181294e-02 
       2.400000e+00      -7.180688e-02       7.181294e-02 
       2.400000e+00      -7.180688e-02      -7.180113e-02 
       2.400000e+00       7.180719e-02      -7.180113e-02 
       2.400000e+00       7.180719e-02       7.181294e-02 
       2.400000e+00      -7.180688e-02       7.181294e-02 
       2.600000e+00      -7.180685e-02      -7.180015e-02 
       2.600000e+00       7.180721e-02      -7.180015e-02 
       2.600000e+00       7.180721e-02       7.181391e-02 
       2.600000e+00      -7.180685e-02       7.181391e-02 
       2.600000e+00      -7.180685e-02      -7.180015e-02 
       2.600000e+00       7.180721e-02      -7.180015e-02 
       2.600000e+00       7.180721e-02       7.181391e-02 
       2.600000e+00      -7.180685e-02       7.181391e-02 
       2.800000e+00      -7.180683e-02      -7.179911e-02 
       2.800000e+00       7.180724e-02      -7.179911e-02 
       2.800000e+00       7.180724e-02       7.181496e-02 
       2.800000e+00      -7.180683e-02       7.181496e-02 
       2.800000e+00      -7.180683e-02      -7.179911e-02 
       2.800000e+00       7.180724e-02      -7.179911e-02 
       2.800000e+00       7.180724e-02       7.181496e-02 
       2.800000e+00      -7.180683e-02       7.181496e-02 
       3.000000e+00      -7.180680e-02      -7.179800e-02 
       3.000000e+00       7.180727e-02      -7.179800e-02 
       3.000000e+00       7.180727e-02       7.181607e-02 
       3.000000e+00      -7.180680e-02       7.181607e-02 
       3.000000e+00      -7.180680e-02      -7.179800e-02 
       3.000000e+00       7.180727e-02      -7.179800e-02 
       3.000000e+00       7.180727e-02       7.181607e-02 
       3.000000e+00      -7.180680e-02       7.181607e-02 
       3.200000e+00      -7.180677e-02      -7.179682e-02 
       3.200000e+00       7.180730e-02      -7.179682e-02 
       3.200000e+00       7.180730e-02       7.181724e-02 
       3.200000e+00      -7.180677e-02       7.181724e-02 
       3.200000e+00      -7.180677e-02      -7.179682e-02 
       3.200000e+00       7.180730e-02      -7.179682e-02 
       3.200000e+00       7.180730e-02       7.181724e-02 
       3.200000e+00      -7.180677e-02       7.181724e-02 
       3.400000e+00      -7.180673e-02      -7.179558e-02 
       3.400000e+00       7.180733e-02      -7.179558e-02 
       3.400000e+00       7.180733e-02       7.181848e-02 
       3.400000e+00      -7.180673e-02       7.181848e-02 
       3.400000e+00      -7.180673e-02      -7.179558e-02 
       3.400000e+00       7.180733e-02      -7.179558e-02 
       3.400000e+00       7.180733e-02       7.181848e-02 
       3.400000e+00      -7.180673e-02       7.181848e-02 
       3.600000e+00      -7.180670e-02      -7.179429e-02 
       3.600000e+00       7.180737e-02      -7.179429e-02 
       3.600000e+00       7.180737e-02       7.181978e-02 
       3.600000e+00      -7.180670e-02       7.181978e-02 
       3.600000e+00      -7.180670e-02      -7.179429e-02 
       3.600000e+00       7.180737e-02      -7.179429e-02 
       3.600000e+00       7.180737e-02       7.181978e-02 
       3.600000e+00      -7.180670e-02       7.181978e-02 
       3.800001e+00      -7.180666e-02      -7.179293e-02 
       3.800000e+00       7.180740e-02      -7.179293e-02 
       3.799999e+00       7.180740e-02       7.182114e-02 
       3.800000e+00      -7.180666e-02       7.182114e-02 
       3.800001e+00      -7.180666e-02      -7.179293e-02 
       3.800000e+00       7.180740e-02      -7.179293e-02 
       3.799999e+00       7.180740e-02       7.182114e-02 
       3.800000e+00      -7.180666e-02       7.182114e-02 
       4.000001e+00      -7.180663e-02      -7.179151e-02 
       4.000001e+00       7.180744e-02      -7.179151e-02 
       3.999999e+00       7.180744e-02       7.182256e-02 
       3.999999e+00      -7.180663e-02       7.182256e-02 
       4.000001e+00      -7.180663e-02      -7.179151e-02 
       4.000001e+00       7.180744e-02      -7.179151e-02 
       3.999999e+00       7.180744e-02       7.182256e-02 
       3.999999e+00      -7.180663e-02       7.182256e-02 
       4.200001e+00      -7.180659e-02      -7.179004e-02 
[...]
POINT_DATA       800 
VECTORS Displacements float
      -5.21050390e-23      -2.77555756e-17      -1.38777878e-17 
      -2.02132975e-23       2.77555756e-17      -1.38777878e-17 
       5.21050390e-23       2.77555756e-17       1.38777878e-17 
       2.02132975e-23      -2.77555756e-17       1.38777878e-17 
       3.23616245e-08       1.15064433e-09       4.40886393e-08 
       3.07076425e-08       1.15064436e-09       4.40791796e-08 
      -3.24008665e-08       1.16010328e-09       4.40791658e-08 
      -3.07468846e-08       1.16010325e-09       4.40886254e-08 
       3.23616245e-08       1.15064433e-09       4.40886393e-08 
       3.07076425e-08       1.15064436e-09       4.40791796e-08 
      -3.24008665e-08       1.16010328e-09       4.40791658e-08 
      -3.07468846e-08       1.16010325e-09       4.40886254e-08 
       6.41006478e-08       4.58252730e-09       1.75218879e-07 
       6.08244689e-08       4.58252729e-09       1.75199959e-07 
      -6.41794938e-08       4.60144446e-09       1.75199905e-07 
      -6.09033148e-08       4.60144446e-09       1.75218825e-07 
       6.41006478e-08       4.58252730e-09       1.75218879e-07 
       6.08244689e-08       4.58252729e-09       1.75199959e-07 
      -6.41794938e-08       4.60144446e-09       1.75199905e-07 
      -6.09033148e-08       4.60144446e-09       1.75218825e-07 
       9.52170736e-08       1.02513846e-08       3.91701393e-07 
       9.03504824e-08       1.02513845e-08       3.91673012e-07 
      -9.53358784e-08       1.02797593e-08       3.91672892e-07 
      -9.04692872e-08       1.02797593e-08       3.91701273e-07 
       9.52170736e-08       1.02513846e-08       3.91701393e-07 
       9.03504824e-08       1.02513845e-08       3.91673012e-07 
      -9.53358784e-08       1.02797593e-08       3.91672892e-07 
      -9.04692872e-08       1.02797593e-08       3.91701273e-07 
       1.25710905e-07       1.81129519e-08       6.91846852e-07 
       1.19285687e-07       1.81129518e-08       6.91809009e-07 
      -1.25870017e-07       1.81507835e-08       6.91808800e-07 
      -1.19444798e-07       1.81507836e-08       6.91846643e-07 
       1.25710905e-07       1.81129519e-08       6.91846852e-07 
       1.19285687e-07       1.81129518e-08       6.91809009e-07 
      -1.25870017e-07       1.81507835e-08       6.91808800e-07 
      -1.19444798e-07       1.81507836e-08       6.91846643e-07 
       1.55582146e-07       2.81229650e-08       1.07396593e-06 
       1.47630085e-07       2.81229648e-08       1.07391862e-06 
      -1.55781905e-07       2.81702528e-08       1.07391830e-06 
      -1.47829844e-07       2.81702530e-08       1.07396561e-06 
       1.55582146e-07       2.81229650e-08       1.07396593e-06 
       1.47630085e-07       2.81229648e-08       1.07391862e-06 
      -1.55781905e-07       2.81702528e-08       1.07391830e-06 
      -1.47829844e-07       2.81702530e-08       1.07396561e-06 
       1.84830800e-07       4.02371595e-08       1.53636930e-06 
       1.75383682e-07       4.02371592e-08       1.53631253e-06 
      -1.85071541e-07       4.02939031e-08       1.53631208e-06 
      -1.75624422e-07       4.02939034e-08       1.53636884e-06 
       1.84830800e-07       4.02371595e-08       1.53636930e-06 
       1.75383682e-07       4.02371592e-08       1.53631253e-06 
      -1.85071541e-07       4.02939031e-08       1.53631208e-06 
      -1.75624422e-07       4.02939034e-08       1.53636884e-06 
       2.13456871e-07       5.44112712e-08       2.07736763e-06 
       2.02546479e-07       5.44112708e-08       2.07730140e-06 
      -2.13738919e-07       5.44774700e-08       2.07730079e-06 
      -2.02828528e-07       5.44774704e-08       2.07736702e-06 
       2.13456871e-07       5.44112712e-08       2.07736763e-06 
       2.02546479e-07       5.44112708e-08       2.07730140e-06 
      -2.13738919e-07       5.44774700e-08       2.07730079e-06 
      -2.02828528e-07       5.44774704e-08       2.07736702e-06 
       2.41460361e-07       7.06010358e-08       2.69527159e-06 
       2.29118482e-07       7.06010353e-08       2.69519590e-06 
      -2.41784037e-07       7.06766894e-08       2.69519513e-06 
      -2.29442158e-07       7.06766899e-08       2.69527082e-06 
       2.41460361e-07       7.06010358e-08       2.69527159e-06 
       2.29118482e-07       7.06010353e-08       2.69519590e-06 
      -2.41784037e-07       7.06766894e-08       2.69519513e-06 
      -2.29442158e-07       7.06766899e-08       2.69527082e-06 
       2.68841275e-07       8.87621890e-08       3.38839187e-06 
       2.55099693e-07       8.87621884e-08       3.38830671e-06 
      -2.69206892e-07       8.88472969e-08       3.38830575e-06 
      -2.55465309e-07       8.88472975e-08       3.38839091e-06 
       2.68841275e-07       8.87621890e-08       3.38839187e-06 
       2.55099693e-07       8.87621884e-08       3.38830671e-06 
      -2.69206892e-07       8.88472969e-08       3.38830575e-06 
      -2.55465309e-07       8.88472975e-08       3.38839091e-06 
       2.95599616e-07       1.08850467e-07       4.15503912e-06 
       2.80490115e-07       1.08850466e-07       4.15494450e-06 
      -2.96007479e-07       1.08945028e-07       4.15494334e-06 
      -2.80897978e-07       1.08945029e-07       4.15503796e-06 
       2.95599615e-07       1.08850467e-07       4.15503912e-06 
       2.80490115e-07       1.08850466e-07       4.15494450e-06 
      -2.96007479e-07       1.08945028e-07       4.15494334e-06 
      -2.80897978e-07       1.08945029e-07       4.15503796e-06 
       3.21775115e-07       1.30822879e-07       4.99355320e-06 
       3.05327808e-07       1.30822878e-07       4.99345010e-06 
      -3.22211648e-07       1.30925898e-07       4.99344873e-06 
      -3.05764340e-07       1.30925899e-07       4.99355182e-06 
       3.21775115e-07       1.30822879e-07       4.99355320e-06 
       3.05327808e-07       1.30822878e-07       4.99345010e-06 
      -3.22211648e-07       1.30925898e-07       4.99344873e-06 
      -3.05764340e-07       1.30925899e-07       4.99355182e-06 
       3.47393365e-07       1.54638549e-07       5.90239358e-06 
       3.29636690e-07       1.54638548e-07       5.90228202e-06 
      -3.47859366e-07       1.54750023e-07       5.90228042e-06 
      -3.30102691e-07       1.54750025e-07       5.90239198e-06 
       3.47393365e-07       1.54638549e-07       5.90239358e-06 
       3.29636690e-07       1.54638548e-07       5.90228202e-06 
      -3.47859366e-07       1.54750023e-07       5.90228042e-06 
      -3.30102691e-07       1.54750025e-07       5.90239198e-06 
       3.72454374e-07       1.80257871e-07       6.88004891e-06 
       3.53416768e-07       1.80257870e-07       6.87992889e-06 
      -3.72950626e-07       1.80377801e-07       6.87992705e-06 
      -3.53913021e-07       1.80377803e-07       6.88004708e-06 
       3.72454374e-07       1.80257871e-07       6.88004891e-06 
       3.53416768e-07       1.80257870e-07       6.87992889e-06 
      -3.72950626e-07       1.80377801e-07       6.87992705e-06 
      -3.53913021e-07       1.80377803e-07       6.88004708e-06 
       3.96958150e-07       2.07641242e-07       7.92500784e-06 
       3.76668052e-07       2.07641240e-07       7.92487934e-06 
      -3.97485420e-07       2.07769628e-07       7.92487726e-06 
      -3.77195323e-07       2.07769629e-07       7.92500575e-06 
       3.96958150e-07       2.07641242e-07       7.92500784e-06 
       3.76668052e-07       2.07641240e-07       7.92487934e-06 
      -3.97485420e-07       2.07769628e-07       7.92487726e-06 
      -3.77195323e-07       2.07769629e-07       7.92500575e-06 
       4.20904701e-07       2.36749057e-07       9.03575900e-06 
       3.99390551e-07       2.36749056e-07       9.03562203e-06 
      -4.21463738e-07       2.36885899e-07       9.03561969e-06 
      -3.99949587e-07       2.36885901e-07       9.03575665e-06 
       4.20904701e-07       2.36749057e-07       9.03575900e-06 
       3.99390551e-07       2.36749056e-07       9.03562203e-06 
      -4.21463738e-07       2.36885899e-07       9.03561969e-06 
      -3.99949587e-07       2.36885901e-07       9.03575665e-06 
       4.44294038e-07       2.67541714e-07       1.02107910e-05 
       4.21584272e-07       2.67541712e-07       1.02106456e-05 
      -4.44885572e-07       2.67687011e-07       1.02106430e-05 
      -4.22175806e-07       2.67687013e-07       1.02107884e-05 
       4.44294038e-07       2.67541714e-07       1.02107910e-05 
       4.21584272e-07       2.67541712e-07       1.02106456e-05 
      -4.44885572e-07       2.67687011e-07       1.02106430e-05 
      -4.22175806e-07       2.67687013e-07       1.02107884e-05 
       4.67126168e-07       2.99979608e-07       1.14485926e-05 
       4.43249225e-07       2.99979606e-07       1.14484387e-05 
      -4.67750913e-07       3.00133360e-07       1.14484358e-05 
      -4.43873971e-07       3.00133362e-07       1.14485897e-05 
       4.67126168e-07       2.99979608e-07       1.14485926e-05 
       4.43249225e-07       2.99979606e-07       1.14484387e-05 
      -4.67750913e-07       3.00133360e-07       1.14484358e-05 
      -4.43873971e-07       3.00133362e-07       1.14485897e-05 
       4.89401100e-07       3.34023135e-07       1.27476523e-05 
       4.64385419e-07       3.34023133e-07       1.27474899e-05 
      -4.90059753e-07       3.34185342e-07       1.27474867e-05 
      -4.65044072e-07       3.34185344e-07       1.27476491e-05 
       4.89401100e-07       3.34023135e-07       1.27476523e-05 
       4.64385419e-07       3.34023133e-07       1.27474899e-05 
      -4.90059753e-07       3.34185342e-07       1.27474867e-05 
      -4.65044072e-07       3.34185344e-07       1.27476491e-05 
       5.11118841e-07       3.69632692e-07       1.41064588e-05 
       4.84992861e-07       3.69632689e-07       1.41062880e-05 
      -5.11812082e-07       3.69803353e-07       1.41062845e-05 
      -4.85686102e-07       3.69803355e-07       1.41064553e-05 
       5.11118841e-07       3.69632692e-07       1.41064588e-05 
       4.84992861e-07       3.69632689e-07       1.41062880e-05 
      -5.11812082e-07       3.69803353e-07       1.41062845e-05 
      -4.85686102e-07       3.69803355e-07       1.41064553e-05 
       5.32279403e-07       4.06768674e-07       1.55235008e-05 
       5.05071560e-07       4.06768671e-07       1.55233214e-05 
      -5.33007894e-07       4.06947789e-07       1.55233177e-05 
      -5.05800052e-07       4.06947792e-07       1.55234970e-05 
       5.32279402e-07       4.06768674e-07       1.55235008e-05 
       5.05071560e-07       4.06768671e-07       1.55233214e-05 
      -5.33007894e-07       4.06947789e-07       1.55233177e-05 
      -5.05800052e-07       4.06947792e-07       1.55234970e-05 
       5.52920465e-07       4.45392753e-07       1.69972960e-05 
       5.24657526e-07       4.45392750e-07       1.69971092e-05 
      -5.53675078e-07       4.45579326e-07       1.69971051e-05 
      -5.25412140e-07       4.45579329e-07       1.69972919e-05 
       5.52920465e-07       4.45392753e-07       1.69972960e-05 
       5.24657526e-07       4.45392750e-07       1.69971092e-05 
      -5.53675078e-07       4.45579326e-07       1.69971051e-05 
      -5.25412140e-07       4.45579329e-07       1.69972919e-05 
       5.73069768e-07       4.85468710e-07       1.85264819e-05 
       5.43776824e-07       4.85468707e-07       1.85262876e-05 
      -5.73851448e-07       4.85662742e-07       1.85262832e-05 
      -5.44558505e-07       4.85662744e-07       1.85264775e-05 
       5.73069768e-07       4.85468710e-07       1.85264819e-05 
       5.43776824e-07       4.85468707e-07       1.85262876e-05 
      -5.73851448e-07       4.85662742e-07       1.85262832e-05 
      -5.44558505e-07       4.85662744e-07       1.85264775e-05 
       5.92727321e-07       5.26961601e-07       2.01097250e-05 
       5.62429465e-07       5.26961598e-07       2.01095233e-05 
      -5.93536990e-07       5.27163091e-07       2.01095186e-05 
      -5.63239135e-07       5.27163094e-07       2.01097204e-05 
       5.92727321e-07       5.26961601e-07       2.01097250e-05 
       5.62429465e-07       5.26961598e-07       2.01095233e-05 
      -5.93536990e-07       5.27163091e-07       2.01095186e-05 
      -5.63239135e-07       5.27163094e-07       2.01097204e-05 
       6.11893135e-07       5.69836484e-07       2.17456921e-05 
       5.80615460e-07       5.69836480e-07       2.17454828e-05 
      -6.12731697e-07       5.70045432e-07       2.17454779e-05 
      -5.81454021e-07       5.70045435e-07       2.17456871e-05 
       6.11893135e-07       5.69836484e-07       2.17456921e-05 
       5.80615460e-07       5.69836480e-07       2.17454828e-05 
      -6.12731697e-07       5.70045432e-07       2.17454779e-05 
      -5.81454021e-07       5.70045435e-07       2.17456871e-05 
       6.30567223e-07       6.14058413e-07       2.34330495e-05 
       5.98334819e-07       6.14058410e-07       2.34328329e-05 
      -6.31435555e-07       6.14274819e-07       2.34328276e-05 
      -5.99203149e-07       6.14274823e-07       2.34330443e-05 
       6.30567223e-07       6.14058413e-07       2.34330495e-05 
       5.98334819e-07       6.14058410e-07       2.34328329e-05 
      -6.31435555e-07       6.14274819e-07       2.34328276e-05 
      -5.99203149e-07       6.14274823e-07       2.34330443e-05 
       6.48749597e-07       6.59592447e-07       2.51704641e-05 
       6.15587555e-07       6.59592443e-07       2.51702399e-05 
      -6.49648552e-07       6.59816310e-07       2.51702343e-05 
      -6.16486511e-07       6.59816314e-07       2.51704585e-05 
       6.48749597e-07       6.59592447e-07       2.51704641e-05 
       6.15587555e-07       6.59592443e-07       2.51702399e-05 
      -6.49648552e-07       6.59816310e-07       2.51702343e-05 
      -6.16486511e-07       6.59816314e-07       2.51704585e-05 
       6.66440266e-07       7.06403640e-07       2.69566022e-05 
       6.32373680e-07       7.06403636e-07       2.69563706e-05 
      -6.67370678e-07       7.06634961e-07       2.69563647e-05 
      -6.33304092e-07       7.06634965e-07       2.69565963e-05 
       6.66440266e-07       7.06403640e-07       2.69566022e-05 
       6.32373680e-07       7.06403636e-07       2.69563706e-05 
      -6.67370678e-07       7.06634961e-07       2.69563647e-05 
      -6.33304092e-07       7.06634965e-07       2.69565963e-05 
       6.83639243e-07       7.54457049e-07       2.87901306e-05 
       6.48693205e-07       7.54457044e-07       2.87898915e-05 
      -6.84601920e-07       7.54695828e-07       2.87898853e-05 
      -6.49655882e-07       7.54695832e-07       2.87901244e-05 
       6.83639243e-07       7.54457049e-07       2.87901306e-05 
       6.48693205e-07       7.54457044e-07       2.87898915e-05 
      -6.84601920e-07       7.54695828e-07       2.87898853e-05 
      -6.49655882e-07       7.54695832e-07       2.87901244e-05 
       7.00346538e-07       8.03717730e-07       3.06697158e-05 
       6.64546140e-07       8.03717726e-07       3.06694692e-05 
      -7.01342269e-07       8.03963967e-07       3.06694627e-05 
      -6.65541870e-07       8.03963972e-07       3.06697093e-05 
       7.00346538e-07       8.03717730e-07       3.06697158e-05 
       6.64546140e-07       8.03717726e-07       3.06694692e-05 
      -7.01342269e-07       8.03963967e-07       3.06694627e-05 
      -6.65541870e-07       8.03963972e-07       3.06697093e-05 
       7.16562164e-07       8.54150740e-07       3.25940244e-05 
       6.79932498e-07       8.54150736e-07       3.25937703e-05 
      -7.17591711e-07       8.54404435e-07       3.25937635e-05 
      -6.80962044e-07       8.54404440e-07       3.25940176e-05 
       7.16562164e-07       8.54150740e-07       3.25940244e-05 
       6.79932498e-07       8.54150736e-07       3.25937703e-05 
      -7.17591710e-07       8.54404435e-07       3.25937635e-05 
      -6.80962044e-07       8.54404440e-07       3.25940176e-05 
       7.32322201e-07       9.05722410e-07       3.45617521e-05 
       6.94886684e-07       9.05722406e-07       3.45614915e-05 
      -7.33379734e-07       9.05982567e-07       3.45614844e-05 
      -6.95944218e-07       9.05982572e-07       3.45617450e-05 
       7.32322201e-07       9.05722410e-07       3.45617521e-05 
       6.94886684e-07       9.05722406e-07       3.45614915e-05 
      -7.33379734e-07       9.05982567e-07       3.45614844e-05 
      -6.95944218e-07       9.05982572e-07       3.45617450e-05 
       7.47656048e-07       9.58401182e-07       3.65717143e-05 
       7.09436429e-07       9.58401177e-07       3.65714473e-05 
      -7.48742475e-07       9.58667801e-07       3.65714399e-05 
      -7.10522855e-07       9.58667806e-07       3.65717069e-05 
       7.47656048e-07       9.58401182e-07       3.65717143e-05 
       7.09436429e-07       9.58401177e-07       3.65714473e-05 
      -7.48742475e-07       9.58667801e-07       3.65714399e-05 
      -7.10522855e-07       9.58667806e-07       3.65717069e-05 
       7.62563722e-07       1.01215677e-06       3.86227555e-05 
       7.23581744e-07       1.01215677e-06       3.86224820e-05 
      -7.63679921e-07       1.01242985e-06       3.86224743e-05 
      -7.24697943e-07       1.01242986e-06       3.86227478e-05 
       7.62563722e-07       1.01215677e-06       3.86227555e-05 
       7.23581744e-07       1.01215677e-06       3.86224820e-05 
      -7.63679921e-07       1.01242985e-06       3.86224743e-05 
      -7.24697943e-07       1.01242986e-06       3.86227478e-05 
       7.77045230e-07       1.06695889e-06       4.07137203e-05 
       7.37322639e-07       1.06695889e-06       4.07134403e-05 
      -7.78192060e-07       1.06723844e-06       4.07134323e-05 
      -7.38469470e-07       1.06723844e-06       4.07137123e-05 
       7.77045230e-07       1.06695889e-06       4.07137203e-05 
       7.37322639e-07       1.06695889e-06       4.07134403e-05 
      -7.78192060e-07       1.06723844e-06       4.07134323e-05 
      -7.38469470e-07       1.06723844e-06       4.07137123e-05 
       7.91100587e-07       1.12277727e-06       4.28434531e-05 
       7.50659130e-07       1.12277726e-06       4.28431666e-05 
      -7.92278881e-07       1.12306327e-06       4.28431583e-05 
      -7.51837423e-07       1.12306328e-06       4.28434448e-05 
       7.91100587e-07       1.12277727e-06       4.28434531e-05 
       7.50659130e-07       1.12277726e-06       4.28431666e-05 
      -7.92278881e-07       1.12306327e-06       4.28431583e-05 
      -7.51837423e-07       1.12306328e-06       4.28434448e-05 
       8.04729805e-07       1.17958161e-06       4.50107984e-05 
       7.63591228e-07       1.17958160e-06       4.50105055e-05 
      -8.05940369e-07       1.17987408e-06       4.50104969e-05 
      -7.64801792e-07       1.17987408e-06       4.50107898e-05 
       8.04729805e-07       1.17958161e-06       4.50107984e-05 
       7.63591228e-07       1.17958160e-06       4.50105055e-05 
      -8.05940369e-07       1.17987408e-06       4.50104969e-05 
      -7.64801792e-07       1.17987408e-06       4.50107898e-05 
       8.17932897e-07       1.23734163e-06       4.72146008e-05 
       7.76118946e-07       1.23734163e-06       4.72143014e-05 
      -8.19176513e-07       1.23764056e-06       4.72142925e-05 
      -7.77362561e-07       1.23764057e-06       4.72145919e-05 
       8.17932897e-07       1.23734163e-06       4.72146008e-05 
       7.76118946e-07       1.23734163e-06       4.72143014e-05 
      -8.19176513e-07       1.23764056e-06       4.72142925e-05 
      -7.77362561e-07       1.23764057e-06       4.72145919e-05 
       8.30709877e-07       1.29602706e-06       4.94537047e-05 
       7.88242296e-07       1.29602705e-06       4.94533988e-05 
      -8.31987299e-07       1.29633245e-06       4.94533897e-05 
      -7.89519719e-07       1.29633246e-06       4.94536956e-05 
       8.30709877e-07       1.29602706e-06       4.94537047e-05 
       7.88242296e-07       1.29602705e-06       4.94533988e-05 