# vtk DataFile Version 2.0
./output/onsasExample_BladeCantileverBeamPitch_windVel3DDynamic 3D/onsasExample_BladeCantileverBeamPitch_windVel3DDynamic 3D_0360.vtk
ASCII
DATASET UNSTRUCTURED_GRID

POINTS 800 float
      -1.357793e-23      -7.180703e-02      -7.180703e-02 
      -1.715082e-23       7.180703e-02      -7.180703e-02 
       1.357793e-23       7.180703e-02       7.180703e-02 
       1.715082e-23      -7.180703e-02       7.180703e-02 
       2.000000e-01      -7.180702e-02      -7.180706e-02 
       2.000000e-01       7.180705e-02      -7.180706e-02 
       2.000000e-01       7.180705e-02       7.180701e-02 
       2.000000e-01      -7.180702e-02       7.180701e-02 
       2.000000e-01      -7.180702e-02      -7.180706e-02 
       2.000000e-01       7.180705e-02      -7.180706e-02 
       2.000000e-01       7.180705e-02       7.180701e-02 
       2.000000e-01      -7.180702e-02       7.180701e-02 
       4.000000e-01      -7.180698e-02      -7.180713e-02 
       3.999999e-01       7.180709e-02      -7.180713e-02 
       4.000000e-01       7.180709e-02       7.180693e-02 
       4.000001e-01      -7.180698e-02       7.180693e-02 
       4.000000e-01      -7.180698e-02      -7.180713e-02 
       3.999999e-01       7.180709e-02      -7.180713e-02 
       4.000000e-01       7.180709e-02       7.180693e-02 
       4.000001e-01      -7.180698e-02       7.180693e-02 
       6.000000e-01      -7.180691e-02      -7.180725e-02 
       5.999999e-01       7.180715e-02      -7.180725e-02 
       6.000000e-01       7.180715e-02       7.180681e-02 
       6.000001e-01      -7.180691e-02       7.180681e-02 
       6.000000e-01      -7.180691e-02      -7.180725e-02 
       5.999999e-01       7.180715e-02      -7.180725e-02 
       6.000000e-01       7.180715e-02       7.180681e-02 
       6.000001e-01      -7.180691e-02       7.180681e-02 
       8.000000e-01      -7.180682e-02      -7.180742e-02 
       7.999999e-01       7.180725e-02      -7.180742e-02 
       8.000000e-01       7.180725e-02       7.180664e-02 
       8.000001e-01      -7.180682e-02       7.180664e-02 
       8.000000e-01      -7.180682e-02      -7.180742e-02 
       7.999999e-01       7.180725e-02      -7.180742e-02 
       8.000000e-01       7.180725e-02       7.180664e-02 
       8.000001e-01      -7.180682e-02       7.180664e-02 
       1.000000e+00      -7.180670e-02      -7.180764e-02 
       9.999999e-01       7.180737e-02      -7.180764e-02 
       1.000000e+00       7.180737e-02       7.180643e-02 
       1.000000e+00      -7.180670e-02       7.180643e-02 
       1.000000e+00      -7.180670e-02      -7.180764e-02 
       9.999999e-01       7.180737e-02      -7.180764e-02 
       1.000000e+00       7.180737e-02       7.180643e-02 
       1.000000e+00      -7.180670e-02       7.180643e-02 
       1.200000e+00      -7.180656e-02      -7.180790e-02 
       1.200000e+00       7.180751e-02      -7.180790e-02 
       1.200000e+00       7.180751e-02       7.180616e-02 
       1.200000e+00      -7.180656e-02       7.180617e-02 
       1.200000e+00      -7.180656e-02      -7.180790e-02 
       1.200000e+00       7.180751e-02      -7.180790e-02 
       1.200000e+00       7.180751e-02       7.180616e-02 
       1.200000e+00      -7.180656e-02       7.180617e-02 
       1.400000e+00      -7.180639e-02      -7.180821e-02 
       1.400000e+00       7.180768e-02      -7.180821e-02 
       1.400000e+00       7.180768e-02       7.180586e-02 
       1.400000e+00      -7.180639e-02       7.180586e-02 
       1.400000e+00      -7.180639e-02      -7.180821e-02 
       1.400000e+00       7.180768e-02      -7.180821e-02 
       1.400000e+00       7.180768e-02       7.180586e-02 
       1.400000e+00      -7.180639e-02       7.180586e-02 
       1.600000e+00      -7.180620e-02      -7.180855e-02 
       1.600000e+00       7.180787e-02      -7.180856e-02 
       1.600000e+00       7.180787e-02       7.180551e-02 
       1.600000e+00      -7.180620e-02       7.180551e-02 
       1.600000e+00      -7.180620e-02      -7.180855e-02 
       1.600000e+00       7.180787e-02      -7.180856e-02 
       1.600000e+00       7.180787e-02       7.180551e-02 
       1.600000e+00      -7.180620e-02       7.180551e-02 
       1.800000e+00      -7.180598e-02      -7.180895e-02 
       1.800000e+00       7.180808e-02      -7.180895e-02 
       1.800000e+00       7.180808e-02       7.180512e-02 
       1.800000e+00      -7.180598e-02       7.180512e-02 
       1.800000e+00      -7.180598e-02      -7.180895e-02 
       1.800000e+00       7.180808e-02      -7.180895e-02 
       1.800000e+00       7.180808e-02       7.180512e-02 
       1.800000e+00      -7.180598e-02       7.180512e-02 
       2.000000e+00      -7.180575e-02      -7.180938e-02 
       2.000000e+00       7.180832e-02      -7.180938e-02 
       2.000000e+00       7.180832e-02       7.180469e-02 
       2.000000e+00      -7.180575e-02       7.180469e-02 
       2.000000e+00      -7.180575e-02      -7.180938e-02 
       2.000000e+00       7.180832e-02      -7.180938e-02 
       2.000000e+00       7.180832e-02       7.180469e-02 
       2.000000e+00      -7.180575e-02       7.180469e-02 
       2.200000e+00      -7.180549e-02      -7.180985e-02 
       2.200000e+00       7.180858e-02      -7.180985e-02 
       2.200000e+00       7.180858e-02       7.180421e-02 
       2.200000e+00      -7.180549e-02       7.180421e-02 
       2.200000e+00      -7.180549e-02      -7.180985e-02 
       2.200000e+00       7.180858e-02      -7.180985e-02 
       2.200000e+00       7.180858e-02       7.180421e-02 
       2.200000e+00      -7.180549e-02       7.180421e-02 
       2.400000e+00      -7.180521e-02      -7.181036e-02 
       2.400000e+00       7.180886e-02      -7.181037e-02 
       2.400000e+00       7.180886e-02       7.180370e-02 
       2.400000e+00      -7.180521e-02       7.180370e-02 
       2.400000e+00      -7.180521e-02      -7.181036e-02 
       2.400000e+00       7.180886e-02      -7.181037e-02 
       2.400000e+00       7.180886e-02       7.180370e-02 
       2.400000e+00      -7.180521e-02       7.180370e-02 
       2.600000e+00      -7.180490e-02      -7.181091e-02 
       2.600000e+00       7.180916e-02      -7.181092e-02 
       2.600000e+00       7.180916e-02       7.180315e-02 
       2.600000e+00      -7.180490e-02       7.180315e-02 
       2.600000e+00      -7.180490e-02      -7.181091e-02 
       2.600000e+00       7.180916e-02      -7.181092e-02 
       2.600000e+00       7.180916e-02       7.180315e-02 
       2.600000e+00      -7.180490e-02       7.180315e-02 
       2.800000e+00      -7.180458e-02      -7.181150e-02 
       2.800000e+00       7.180948e-02      -7.181151e-02 
       2.800000e+00       7.180949e-02       7.180256e-02 
       2.800000e+00      -7.180458e-02       7.180256e-02 
       2.800000e+00      -7.180458e-02      -7.181150e-02 
       2.800000e+00       7.180948e-02      -7.181151e-02 
       2.800000e+00       7.180949e-02       7.180256e-02 
       2.800000e+00      -7.180458e-02       7.180256e-02 
       3.000000e+00      -7.180424e-02      -7.181213e-02 
       3.000000e+00       7.180983e-02      -7.181213e-02 
       3.000000e+00       7.180983e-02       7.180194e-02 
       3.000000e+00      -7.180424e-02       7.180194e-02 
       3.000000e+00      -7.180424e-02      -7.181213e-02 
       3.000000e+00       7.180983e-02      -7.181213e-02 
       3.000000e+00       7.180983e-02       7.180194e-02 
       3.000000e+00      -7.180424e-02       7.180194e-02 
       3.200000e+00      -7.180387e-02      -7.181279e-02 
       3.200000e+00       7.181019e-02      -7.181279e-02 
       3.200000e+00       7.181019e-02       7.180127e-02 
       3.200000e+00      -7.180387e-02       7.180128e-02 
       3.200000e+00      -7.180387e-02      -7.181279e-02 
       3.200000e+00       7.181019e-02      -7.181279e-02 
       3.200000e+00       7.181019e-02       7.180127e-02 
       3.200000e+00      -7.180387e-02       7.180128e-02 
       3.400000e+00      -7.180349e-02      -7.181349e-02 
       3.400000e+00       7.181057e-02      -7.181349e-02 
       3.400000e+00       7.181058e-02       7.180058e-02 
       3.400000e+00      -7.180349e-02       7.180058e-02 
       3.400000e+00      -7.180349e-02      -7.181349e-02 
       3.400000e+00       7.181057e-02      -7.181349e-02 
       3.400000e+00       7.181058e-02       7.180058e-02 
       3.400000e+00      -7.180349e-02       7.180058e-02 
       3.600000e+00      -7.180309e-02      -7.181422e-02 
       3.600000e+00       7.181098e-02      -7.181422e-02 
       3.600000e+00       7.181098e-02       7.179985e-02 
       3.600000e+00      -7.180309e-02       7.179985e-02 
       3.600000e+00      -7.180309e-02      -7.181422e-02 
       3.600000e+00       7.181098e-02      -7.181422e-02 
       3.600000e+00       7.181098e-02       7.179985e-02 
       3.600000e+00      -7.180309e-02       7.179985e-02 
       3.800000e+00      -7.180267e-02      -7.181498e-02 
       3.800000e+00       7.181140e-02      -7.181498e-02 
       3.800000e+00       7.181140e-02       7.179908e-02 
       3.800000e+00      -7.180267e-02       7.179908e-02 
       3.800000e+00      -7.180267e-02      -7.181498e-02 
       3.800000e+00       7.181140e-02      -7.181498e-02 
       3.800000e+00       7.181140e-02       7.179908e-02 
       3.800000e+00      -7.180267e-02       7.179908e-02 
       4.000000e+00      -7.180223e-02      -7.181578e-02 
       4.000000e+00       7.181183e-02      -7.181578e-02 
       4.000000e+00       7.181184e-02       7.179828e-02 
       4.000000e+00      -7.180223e-02       7.179829e-02 
       4.000000e+00      -7.180223e-02      -7.181578e-02 
       4.000000e+00       7.181183e-02      -7.181578e-02 
       4.000000e+00       7.181184e-02       7.179828e-02 
       4.000000e+00      -7.180223e-02       7.179829e-02 
       4.200000e+00      -7.180178e-02      -7.181661e-02 
[...]
POINT_DATA       800 
VECTORS Displacements float
      -1.35779341e-23      -1.38777878e-17      -1.38777878e-17 
      -1.71508182e-23       1.38777878e-17      -1.38777878e-17 
       1.35779341e-23       1.38777878e-17       1.38777878e-17 
       1.71508182e-23      -1.38777878e-17       1.38777878e-17 
      -8.11484266e-09       1.35766275e-08      -2.48604915e-08 
      -2.76581504e-08       1.35766262e-08      -2.50114622e-08 
       8.03576999e-09       1.37276017e-08      -2.50114666e-08 
       2.75790778e-08       1.37276030e-08      -2.48604959e-08 
      -8.11484266e-09       1.35766275e-08      -2.48604915e-08 
      -2.76581504e-08       1.35766262e-08      -2.50114622e-08 
       8.03576999e-09       1.37276017e-08      -2.50114666e-08 
       2.75790778e-08       1.37276030e-08      -2.48604959e-08 
      -1.60659452e-08       5.41062715e-08      -9.89375530e-08 
      -5.47742701e-08       5.41062663e-08      -9.92394897e-08 
       1.59076497e-08       5.44082221e-08      -9.92395070e-08 
       5.46159746e-08       5.44082273e-08      -9.89375703e-08 
      -1.60659452e-08       5.41062715e-08      -9.89375530e-08 
      -5.47742701e-08       5.41062663e-08      -9.92394897e-08 
       1.59076497e-08       5.44082221e-08      -9.92395070e-08 
       5.46159746e-08       5.44082273e-08      -9.89375703e-08 
      -2.38533060e-08       1.21062117e-07      -2.21248104e-07 
      -8.13483576e-08       1.21062105e-07      -2.21701002e-07 
       2.36156406e-08       1.21515045e-07      -2.21701040e-07 
       8.11106922e-08       1.21515057e-07      -2.21248142e-07 
      -2.38533060e-08       1.21062117e-07      -2.21248104e-07 
      -8.13483576e-08       1.21062105e-07      -2.21701002e-07 
       2.36156406e-08       1.21515045e-07      -2.21701040e-07 
       8.11106922e-08       1.21515057e-07      -2.21248142e-07 
      -3.14769236e-08       2.13917347e-07      -3.90809063e-07 
      -1.07380411e-07       2.13917327e-07      -3.91412919e-07 
       3.11597442e-08       2.14521256e-07      -3.91412986e-07 
       1.07063232e-07       2.14521276e-07      -3.90809130e-07 
      -3.14769236e-08       2.13917347e-07      -3.90809063e-07 
      -1.07380411e-07       2.13917327e-07      -3.91412919e-07 
       3.11597442e-08       2.14521256e-07      -3.91412986e-07 
       1.07063232e-07       2.14521276e-07      -3.90809130e-07 
      -3.89367967e-08       3.32145148e-07      -6.06637352e-07 
      -1.32870430e-07       3.32145117e-07      -6.07392161e-07 
       3.85399619e-08       3.32900039e-07      -6.07392263e-07 
       1.32473595e-07       3.32900070e-07      -6.06637454e-07 
      -3.89367967e-08       3.32145148e-07      -6.06637352e-07 
      -1.32870430e-07       3.32145117e-07      -6.07392161e-07 
       3.85399619e-08       3.32900039e-07      -6.07392263e-07 
       1.32473595e-07       3.32900070e-07      -6.06637454e-07 
      -4.62329237e-08       4.75218703e-07      -8.67749888e-07 
      -1.57818411e-07       4.75218660e-07      -8.68655647e-07 
       4.57562954e-08       4.76124577e-07      -8.68655791e-07 
       1.57341783e-07       4.76124621e-07      -8.67750032e-07 
      -4.62329237e-08       4.75218703e-07      -8.67749888e-07 
      -1.57818411e-07       4.75218660e-07      -8.68655647e-07 
       4.57562954e-08       4.76124577e-07      -8.68655791e-07 
       1.57341783e-07       4.76124621e-07      -8.67750032e-07 
      -5.33653031e-08       6.42611197e-07      -1.17316359e-06 
      -1.82224355e-07       6.42611139e-07      -1.17422030e-06 
       5.28087458e-08       6.43668057e-07      -1.17422049e-06 
       1.81667798e-07       6.43668114e-07      -1.17316378e-06 
      -5.33653031e-08       6.42611197e-07      -1.17316359e-06 
      -1.82224355e-07       6.42611139e-07      -1.17422030e-06 
       5.28087458e-08       6.43668057e-07      -1.17422049e-06 
       1.81667798e-07       6.43668114e-07      -1.17316378e-06 
      -6.03339332e-08       8.33795815e-07      -1.52189538e-06 
      -2.06088259e-07       8.33795741e-07      -1.52310303e-06 
       5.96973153e-08       8.35003661e-07      -1.52310328e-06 
       2.05451641e-07       8.35003735e-07      -1.52189563e-06 
      -6.03339332e-08       8.33795815e-07      -1.52189538e-06 
      -2.06088259e-07       8.33795741e-07      -1.52310303e-06 
       5.96973153e-08       8.35003661e-07      -1.52310328e-06 
       2.05451641e-07       8.35003735e-07      -1.52189563e-06 
      -6.71388130e-08       1.04824574e-06      -1.91296218e-06 
      -2.29410122e-07       1.04824565e-06      -1.91432077e-06 
       6.64220046e-08       1.04960457e-06      -1.91432107e-06 
       2.28693313e-07       1.04960467e-06      -1.91296248e-06 
      -6.71388130e-08       1.04824574e-06      -1.91296218e-06 
      -2.29410122e-07       1.04824565e-06      -1.91432077e-06 
       6.64220046e-08       1.04960457e-06      -1.91432107e-06 
       2.28693313e-07       1.04960467e-06      -1.91296248e-06 
      -7.37799404e-08       1.28543416e-06      -2.34538090e-06 
      -2.52189941e-07       1.28543405e-06      -2.34689043e-06 
       7.29828158e-08       1.28694398e-06      -2.34689080e-06 
       2.51392816e-07       1.28694409e-06      -2.34538127e-06 
      -7.37799404e-08       1.28543416e-06      -2.34538090e-06 
      -2.52189941e-07       1.28543405e-06      -2.34689043e-06 
       7.29828158e-08       1.28694398e-06      -2.34689080e-06 
       2.51392817e-07       1.28694409e-06      -2.34538127e-06 
      -8.02530180e-08       1.54485171e-06      -2.81819543e-06 
      -2.74443671e-07       1.54485157e-06      -2.81983993e-06 
       7.94039408e-08       1.54649656e-06      -2.81984036e-06 
       2.73594594e-07       1.54649669e-06      -2.81819586e-06 
      -8.02530180e-08       1.54485171e-06      -2.81819543e-06 
      -2.74443671e-07       1.54485157e-06      -2.81983993e-06 
       7.94039408e-08       1.54649656e-06      -2.81984036e-06 
       2.73594594e-07       1.54649669e-06      -2.81819586e-06 
      -8.65811765e-08       1.82601009e-06      -3.33050548e-06 
      -2.96214078e-07       1.82600994e-06      -3.33228495e-06 
       8.56798188e-08       1.82778997e-06      -3.33228546e-06 
       2.95312720e-07       1.82779012e-06      -3.33050599e-06 
      -8.65811765e-08       1.82601009e-06      -3.33050548e-06 
      -2.96214078e-07       1.82600994e-06      -3.33228495e-06 
       8.56798188e-08       1.82778997e-06      -3.33228546e-06 
       2.95312720e-07       1.82779012e-06      -3.33050599e-06 
      -9.27644135e-08       2.12843804e-06      -3.88143571e-06 
      -3.17501160e-07       2.12843786e-06      -3.88335015e-06 
       9.18104521e-08       2.13035295e-06      -3.88335074e-06 
       3.16547198e-07       2.13035312e-06      -3.88143630e-06 
      -9.27644135e-08       2.12843804e-06      -3.88143571e-06 
      -3.17501160e-07       2.12843786e-06      -3.88335015e-06 
       9.18104521e-08       2.13035295e-06      -3.88335074e-06 
       3.16547198e-07       2.13035312e-06      -3.88143630e-06 
      -9.88027247e-08       2.45166429e-06      -4.47011075e-06 
      -3.38304912e-07       2.45166409e-06      -4.47216016e-06 
       9.77958452e-08       2.45371423e-06      -4.47216082e-06 
       3.37298032e-07       2.45371443e-06      -4.47011142e-06 
      -9.88027247e-08       2.45166429e-06      -4.47011075e-06 
      -3.38304912e-07       2.45166409e-06      -4.47216016e-06 
       9.77958452e-08       2.45371423e-06      -4.47216082e-06 
       3.37298032e-07       2.45371443e-06      -4.47011142e-06 
      -1.04696106e-07       2.79521757e-06      -5.09565525e-06 
      -3.58625331e-07       2.79521735e-06      -5.09783962e-06 
       1.03636001e-07       2.79740254e-06      -5.09784036e-06 
       3.57565225e-07       2.79740276e-06      -5.09565599e-06 
      -1.04696106e-07       2.79521757e-06      -5.09565525e-06 
      -3.58625331e-07       2.79521735e-06      -5.09783962e-06 
       1.03636001e-07       2.79740254e-06      -5.09784036e-06 
       3.57565225e-07       2.79740276e-06      -5.09565599e-06 
      -1.10444556e-07       3.15862662e-06      -5.75719384e-06 
      -3.78462413e-07       3.15862637e-06      -5.75951317e-06 
       1.09330924e-07       3.16094661e-06      -5.75951400e-06 
       3.77348782e-07       3.16094686e-06      -5.75719466e-06 
      -1.10444556e-07       3.15862662e-06      -5.75719384e-06 
      -3.78462413e-07       3.15862637e-06      -5.75951317e-06 
       1.09330924e-07       3.16094661e-06      -5.75951400e-06 
       3.77348782e-07       3.16094686e-06      -5.75719466e-06 
      -1.16048068e-07       3.54142016e-06      -6.45385116e-06 
      -3.97816155e-07       3.54141988e-06      -6.45630545e-06 
       1.14880617e-07       3.54387518e-06      -6.45630637e-06 
       3.96648705e-07       3.54387546e-06      -6.45385207e-06 
      -1.16048068e-07       3.54142016e-06      -6.45385116e-06 
      -3.97816155e-07       3.54141988e-06      -6.45630545e-06 
       1.14880617e-07       3.54387518e-06      -6.45630637e-06 
       3.96648705e-07       3.54387546e-06      -6.45385207e-06 
      -1.21506640e-07       3.94312692e-06      -7.18475185e-06 
      -4.16686553e-07       3.94312662e-06      -7.18734111e-06 
       1.20285085e-07       3.94571698e-06      -7.18734211e-06 
       4.15464998e-07       3.94571729e-06      -7.18475285e-06 
      -1.21506640e-07       3.94312692e-06      -7.18475185e-06 
      -4.16686553e-07       3.94312662e-06      -7.18734111e-06 
       1.20285085e-07       3.94571698e-06      -7.18734211e-06 
       4.15464998e-07       3.94571729e-06      -7.18475285e-06 
      -1.26820268e-07       4.36327565e-06      -7.94902056e-06 
      -4.35073603e-07       4.36327532e-06      -7.95174478e-06 
       1.25544330e-07       4.36600074e-06      -7.95174587e-06 
       4.33797666e-07       4.36600107e-06      -7.94902165e-06 
      -1.26820268e-07       4.36327565e-06      -7.94902056e-06 
      -4.35073603e-07       4.36327532e-06      -7.95174478e-06 
       1.25544330e-07       4.36600074e-06      -7.95174587e-06 
       4.33797666e-07       4.36600107e-06      -7.94902165e-06 
      -1.31988949e-07       4.80139506e-06      -8.74578192e-06 
      -4.52977303e-07       4.80139470e-06      -8.74864110e-06 
       1.30658356e-07       4.80425519e-06      -8.74864229e-06 
       4.51646711e-07       4.80425554e-06      -8.74578311e-06 
      -1.31988949e-07       4.80139506e-06      -8.74578192e-06 
      -4.52977303e-07       4.80139470e-06      -8.74864110e-06 
       1.30658356e-07       4.80425519e-06      -8.74864229e-06 
       4.51646710e-07       4.80425554e-06      -8.74578311e-06 
      -1.37011817e-07       5.25703103e-06      -9.57418623e-06 
      -4.70416579e-07       5.25703065e-06      -9.57716443e-06 
       1.35646393e-07       5.26001025e-06      -9.57716571e-06 
       4.69051156e-07       5.26001064e-06      -9.57418751e-06 
      -1.37011817e-07       5.25703103e-06      -9.57418623e-06 
      -4.70416579e-07       5.25703065e-06      -9.57716443e-06 
       1.35646393e-07       5.26001025e-06      -9.57716571e-06 
       4.69051156e-07       5.26001064e-06      -9.57418751e-06 
      -1.41908206e-07       5.72975042e-06      -1.04334389e-05 
      -4.87430749e-07       5.72975001e-06      -1.04365362e-05 
       1.40507566e-07       5.73284873e-06      -1.04365375e-05 
       4.86030109e-07       5.73284915e-06      -1.04334403e-05 
      -1.41908206e-07       5.72975042e-06      -1.04334389e-05 
      -4.87430749e-07       5.72975001e-06      -1.04365362e-05 
       1.40507566e-07       5.73284873e-06      -1.04365375e-05 
       4.86030109e-07       5.73284915e-06      -1.04334403e-05 
      -1.46678112e-07       6.21913735e-06      -1.13227714e-05 
      -5.04019806e-07       6.21913690e-06      -1.13259876e-05 
       1.45241881e-07       6.22235475e-06      -1.13259891e-05 
       5.02583575e-07       6.22235520e-06      -1.13227729e-05 
      -1.46678112e-07       6.21913735e-06      -1.13227714e-05 
      -5.04019806e-07       6.21913690e-06      -1.13259876e-05 
       1.45241881e-07       6.22235475e-06      -1.13259891e-05 
       5.02583575e-07       6.22235520e-06      -1.13227729e-05 
      -1.51321532e-07       6.72477593e-06      -1.22414149e-05 
      -5.20183748e-07       6.72477546e-06      -1.22447501e-05 
       1.49849340e-07       6.72811243e-06      -1.22447517e-05 
       5.18711556e-07       6.72811291e-06      -1.22414164e-05 
      -1.51321532e-07       6.72477593e-06      -1.22414149e-05 
      -5.20183748e-07       6.72477546e-06      -1.22447501e-05 
       1.49849340e-07       6.72811243e-06      -1.22447517e-05 
       5.18711556e-07       6.72811291e-06      -1.22414164e-05 
      -1.55838459e-07       7.24625030e-06      -1.31886007e-05 
      -5.35922568e-07       7.24624980e-06      -1.31920550e-05 
       1.54329951e-07       7.24970590e-06      -1.31920566e-05 
       5.34414060e-07       7.24970640e-06      -1.31886024e-05 
      -1.55838459e-07       7.24625030e-06      -1.31886007e-05 
      -5.35922568e-07       7.24624980e-06      -1.31920550e-05 
       1.54329951e-07       7.24970590e-06      -1.31920566e-05 
       5.34414060e-07       7.24970640e-06      -1.31886024e-05 
      -1.60228889e-07       7.78314458e-06      -1.41635602e-05 
      -5.51236262e-07       7.78314404e-06      -1.41671335e-05 
       1.58683716e-07       7.78671927e-06      -1.41671352e-05 
       5.49691090e-07       7.78671980e-06      -1.41635620e-05 
      -1.60228889e-07       7.78314458e-06      -1.41635602e-05 
      -5.51236262e-07       7.78314404e-06      -1.41671335e-05 
       1.58683716e-07       7.78671927e-06      -1.41671352e-05 
       5.49691090e-07       7.78671980e-06      -1.41635620e-05 
      -1.64492817e-07       8.33504288e-06      -1.51655247e-05 
      -5.66124825e-07       8.33504232e-06      -1.51692170e-05 
       1.62910642e-07       8.33873667e-06      -1.51692188e-05 
       5.64542651e-07       8.33873723e-06      -1.51655265e-05 
      -1.64492817e-07       8.33504288e-06      -1.51655247e-05 
      -5.66124825e-07       8.33504232e-06      -1.51692170e-05 
       1.62910642e-07       8.33873667e-06      -1.51692188e-05 
       5.64542651e-07       8.33873723e-06      -1.51655265e-05 
      -1.68630237e-07       8.90152934e-06      -1.61937254e-05 
      -5.80588251e-07       8.90152875e-06      -1.61975368e-05 
       1.67010734e-07       8.90534223e-06      -1.61975387e-05 
       5.78968749e-07       8.90534282e-06      -1.61937274e-05 
      -1.68630237e-07       8.90152934e-06      -1.61937254e-05 
      -5.80588251e-07       8.90152875e-06      -1.61975368e-05 
       1.67010734e-07       8.90534223e-06      -1.61975387e-05 
       5.78968749e-07       8.90534282e-06      -1.61937274e-05 
      -1.72641147e-07       9.48218808e-06      -1.72473938e-05 
      -5.94626539e-07       9.48218746e-06      -1.72513242e-05 
       1.70983995e-07       9.48612006e-06      -1.72513262e-05 
       5.92969387e-07       9.48612068e-06      -1.72473959e-05 
      -1.72641147e-07       9.48218808e-06      -1.72473938e-05 
      -5.94626539e-07       9.48218746e-06      -1.72513242e-05 
       1.70983995e-07       9.48612006e-06      -1.72513262e-05 
       5.92969387e-07       9.48612068e-06      -1.72473959e-05 
      -1.76525540e-07       1.00766032e-05      -1.83257611e-05 
      -6.08239681e-07       1.00766026e-05      -1.83298105e-05 
       1.74830430e-07       1.00806543e-05      -1.83298126e-05 
       6.06544571e-07       1.00806549e-05      -1.83257633e-05 
      -1.76525540e-07       1.00766032e-05      -1.83257611e-05 
      -6.08239681e-07       1.00766026e-05      -1.83298105e-05 
       1.74830430e-07       1.00806543e-05      -1.83298126e-05 
       6.06544571e-07       1.00806549e-05      -1.83257633e-05 
      -1.80285842e-07       1.06843760e-05      -1.94280843e-05 
      -6.21449909e-07       1.06843753e-05      -1.94322367e-05 
       1.78565985e-07       1.06885302e-05      -1.94322390e-05 
       6.19730053e-07       1.06885309e-05      -1.94280865e-05 
      -1.80285842e-07       1.06843760e-05      -1.94280843e-05 
      -6.21449909e-07       1.06843753e-05      -1.94322367e-05 
       1.78565985e-07       1.06885302e-05      -1.94322390e-05 
       6.19730053e-07       1.06885309e-05      -1.94280865e-05 
      -1.83938196e-07       1.13051288e-05      -2.05536758e-05 
      -6.34293583e-07       1.13051281e-05      -2.05579314e-05 
       1.82193227e-07       1.13093863e-05      -2.05579337e-05 
       6.32548614e-07       1.13093870e-05      -2.05536781e-05 
      -1.83938196e-07       1.13051288e-05      -2.05536758e-05 
      -6.34293583e-07       1.13051281e-05      -2.05579314e-05 
       1.82193227e-07       1.13093863e-05      -2.05579337e-05 
       6.32548614e-07       1.13093870e-05      -2.05536781e-05 
      -1.87482594e-07       1.19385016e-05      -2.17018744e-05 
      -6.46770696e-07       1.19385009e-05      -2.17062331e-05 
       1.85712160e-07       1.19428622e-05      -2.17062355e-05 
       6.45000261e-07       1.19428630e-05      -2.17018768e-05 
      -1.87482594e-07       1.19385016e-05      -2.17018744e-05 
      -6.46770696e-07       1.19385009e-05      -2.17062331e-05 
       1.85712160e-07       1.19428622e-05      -2.17062355e-05 
       6.45000261e-07       1.19428630e-05      -2.17018768e-05 
      -1.90919034e-07       1.25841343e-05      -2.28720188e-05 
      -6.58881244e-07       1.25841335e-05      -2.28764806e-05 
       1.89122789e-07       1.25885980e-05      -2.28764831e-05 
       6.57084999e-07       1.25885988e-05      -2.28720213e-05 
      -1.90919034e-07       1.25841343e-05      -2.28720188e-05 
      -6.58881244e-07       1.25841335e-05      -2.28764806e-05 
       1.89122789e-07       1.25885980e-05      -2.28764831e-05 
       6.57084999e-07       1.25885988e-05      -2.28720213e-05 
      -1.94247510e-07       1.32416666e-05      -2.40634477e-05 
      -6.70625221e-07       1.32416658e-05      -2.40680126e-05 
       1.92425119e-07       1.32462335e-05      -2.40680152e-05 
       6.68802830e-07       1.32462343e-05      -2.40634503e-05 
      -1.94247510e-07       1.32416666e-05      -2.40634477e-05 
      -6.70625221e-07       1.32416658e-05      -2.40680126e-05 
       1.92425119e-07       1.32462335e-05      -2.40680152e-05 
       6.68802830e-07       1.32462343e-05      -2.40634503e-05 
      -1.97468016e-07       1.39107384e-05      -2.52754997e-05 
      -6.82002622e-07       1.39107376e-05      -2.52801677e-05 
       1.95619156e-07       1.39154085e-05      -2.52801704e-05 
       6.80153764e-07       1.39154094e-05      -2.52755024e-05 
      -1.97468016e-07       1.39107384e-05      -2.52754997e-05 
      -6.82002622e-07       1.39107376e-05      -2.52801677e-05 
       1.95619156e-07       1.39154085e-05      -2.52801704e-05 
       6.80153764e-07       1.39154094e-05      -2.52755024e-05 
      -2.00580548e-07       1.45909897e-05      -2.65075136e-05 
      -6.93013443e-07       1.45909888e-05      -2.65122847e-05 
       1.98704905e-07       1.45957629e-05      -2.65122874e-05 
       6.91137801e-07       1.45957638e-05      -2.65075164e-05 
      -2.00580548e-07       1.45909897e-05      -2.65075136e-05 
      -6.93013443e-07       1.45909888e-05      -2.65122847e-05 
       1.98704905e-07       1.45957629e-05      -2.65122874e-05 
       6.91137801e-07       1.45957638e-05      -2.65075164e-05 
      -2.03585097e-07       1.52820602e-05      -2.77588280e-05 
      -7.03657676e-07       1.52820593e-05      -2.77637022e-05 
       2.01682373e-07       1.52869366e-05      -2.77637050e-05 
       7.01754952e-07       1.52869375e-05      -2.77588308e-05 
      -2.03585097e-07       1.52820602e-05      -2.77588280e-05 
      -7.03657676e-07       1.52820593e-05      -2.77637022e-05 