# vtk DataFile Version 2.0
./output/onsasExample_BladeCantileverBeamPitch_windVel3DDynamic 3D/onsasExample_BladeCantileverBeamPitch_windVel3DDynamic 3D_0041.vtk
ASCII
DATASET UNSTRUCTURED_GRID

POINTS 800 float
      -4.773930e-24      -7.180703e-02      -7.180703e-02 
      -6.558553e-24       7.180703e-02      -7.180703e-02 
       4.773930e-24       7.180703e-02       7.180703e-02 
       6.558553e-24      -7.180703e-02       7.180703e-02 
       2.000000e-01      -7.180702e-02      -7.180706e-02 
       2.000000e-01       7.180705e-02      -7.180706e-02 
       2.000000e-01       7.180705e-02       7.180700e-02 
       2.000000e-01      -7.180702e-02       7.180700e-02 
       2.000000e-01      -7.180702e-02      -7.180706e-02 
       2.000000e-01       7.180705e-02      -7.180706e-02 
       2.000000e-01       7.180705e-02       7.180700e-02 
       2.000000e-01      -7.180702e-02       7.180700e-02 
       4.000000e-01      -7.180698e-02      -7.180715e-02 
       3.999999e-01       7.180709e-02      -7.180715e-02 
       4.000000e-01       7.180709e-02       7.180692e-02 
       4.000001e-01      -7.180698e-02       7.180692e-02 
       4.000000e-01      -7.180698e-02      -7.180715e-02 
       3.999999e-01       7.180709e-02      -7.180715e-02 
       4.000000e-01       7.180709e-02       7.180692e-02 
       4.000001e-01      -7.180698e-02       7.180692e-02 
       6.000000e-01      -7.180691e-02      -7.180729e-02 
       5.999999e-01       7.180716e-02      -7.180729e-02 
       6.000000e-01       7.180716e-02       7.180678e-02 
       6.000001e-01      -7.180691e-02       7.180678e-02 
       6.000000e-01      -7.180691e-02      -7.180729e-02 
       5.999999e-01       7.180716e-02      -7.180729e-02 
       6.000000e-01       7.180716e-02       7.180678e-02 
       6.000001e-01      -7.180691e-02       7.180678e-02 
       8.000000e-01      -7.180682e-02      -7.180748e-02 
       7.999999e-01       7.180725e-02      -7.180748e-02 
       8.000000e-01       7.180725e-02       7.180659e-02 
       8.000001e-01      -7.180681e-02       7.180659e-02 
       8.000000e-01      -7.180682e-02      -7.180748e-02 
       7.999999e-01       7.180725e-02      -7.180748e-02 
       8.000000e-01       7.180725e-02       7.180659e-02 
       8.000001e-01      -7.180681e-02       7.180659e-02 
       9.999999e-01      -7.180669e-02      -7.180772e-02 
       9.999999e-01       7.180737e-02      -7.180773e-02 
       1.000000e+00       7.180737e-02       7.180634e-02 
       1.000000e+00      -7.180669e-02       7.180634e-02 
       9.999999e-01      -7.180669e-02      -7.180772e-02 
       9.999999e-01       7.180737e-02      -7.180773e-02 
       1.000000e+00       7.180737e-02       7.180634e-02 
       1.000000e+00      -7.180669e-02       7.180634e-02 
       1.200000e+00      -7.180655e-02      -7.180802e-02 
       1.200000e+00       7.180752e-02      -7.180802e-02 
       1.200000e+00       7.180752e-02       7.180604e-02 
       1.200000e+00      -7.180655e-02       7.180604e-02 
       1.200000e+00      -7.180655e-02      -7.180802e-02 
       1.200000e+00       7.180752e-02      -7.180802e-02 
       1.200000e+00       7.180752e-02       7.180604e-02 
       1.200000e+00      -7.180655e-02       7.180604e-02 
       1.400000e+00      -7.180638e-02      -7.180837e-02 
       1.400000e+00       7.180769e-02      -7.180837e-02 
       1.400000e+00       7.180769e-02       7.180569e-02 
       1.400000e+00      -7.180638e-02       7.180569e-02 
       1.400000e+00      -7.180638e-02      -7.180837e-02 
       1.400000e+00       7.180769e-02      -7.180837e-02 
       1.400000e+00       7.180769e-02       7.180569e-02 
       1.400000e+00      -7.180638e-02       7.180569e-02 
       1.600000e+00      -7.180618e-02      -7.180877e-02 
       1.600000e+00       7.180788e-02      -7.180877e-02 
       1.600000e+00       7.180788e-02       7.180530e-02 
       1.600000e+00      -7.180618e-02       7.180530e-02 
       1.600000e+00      -7.180618e-02      -7.180877e-02 
       1.600000e+00       7.180788e-02      -7.180877e-02 
       1.600000e+00       7.180788e-02       7.180530e-02 
       1.600000e+00      -7.180618e-02       7.180530e-02 
       1.800000e+00      -7.180596e-02      -7.180922e-02 
       1.800000e+00       7.180810e-02      -7.180922e-02 
       1.800000e+00       7.180810e-02       7.180485e-02 
       1.800000e+00      -7.180596e-02       7.180485e-02 
       1.800000e+00      -7.180596e-02      -7.180922e-02 
       1.800000e+00       7.180810e-02      -7.180922e-02 
       1.800000e+00       7.180810e-02       7.180485e-02 
       1.800000e+00      -7.180596e-02       7.180485e-02 
       2.000000e+00      -7.180572e-02      -7.180971e-02 
       2.000000e+00       7.180834e-02      -7.180971e-02 
       2.000000e+00       7.180835e-02       7.180435e-02 
       2.000000e+00      -7.180572e-02       7.180435e-02 
       2.000000e+00      -7.180572e-02      -7.180971e-02 
       2.000000e+00       7.180834e-02      -7.180971e-02 
       2.000000e+00       7.180835e-02       7.180435e-02 
       2.000000e+00      -7.180572e-02       7.180435e-02 
       2.200000e+00      -7.180546e-02      -7.181025e-02 
       2.200000e+00       7.180861e-02      -7.181025e-02 
       2.200000e+00       7.180861e-02       7.180381e-02 
       2.200000e+00      -7.180546e-02       7.180381e-02 
       2.200000e+00      -7.180546e-02      -7.181025e-02 
       2.200000e+00       7.180861e-02      -7.181025e-02 
       2.200000e+00       7.180861e-02       7.180381e-02 
       2.200000e+00      -7.180546e-02       7.180381e-02 
       2.400000e+00      -7.180517e-02      -7.181084e-02 
       2.400000e+00       7.180890e-02      -7.181084e-02 
       2.400000e+00       7.180890e-02       7.180322e-02 
       2.400000e+00      -7.180517e-02       7.180323e-02 
       2.400000e+00      -7.180517e-02      -7.181084e-02 
       2.400000e+00       7.180890e-02      -7.181084e-02 
       2.400000e+00       7.180890e-02       7.180322e-02 
       2.400000e+00      -7.180517e-02       7.180323e-02 
       2.600000e+00      -7.180486e-02      -7.181147e-02 
       2.600000e+00       7.180921e-02      -7.181147e-02 
       2.600000e+00       7.180921e-02       7.180259e-02 
       2.600000e+00      -7.180486e-02       7.180259e-02 
       2.600000e+00      -7.180486e-02      -7.181147e-02 
       2.600000e+00       7.180921e-02      -7.181147e-02 
       2.600000e+00       7.180921e-02       7.180259e-02 
       2.600000e+00      -7.180486e-02       7.180259e-02 
       2.800000e+00      -7.180453e-02      -7.181215e-02 
       2.800000e+00       7.180954e-02      -7.181215e-02 
       2.800000e+00       7.180954e-02       7.180192e-02 
       2.800000e+00      -7.180453e-02       7.180192e-02 
       2.800000e+00      -7.180453e-02      -7.181215e-02 
       2.800000e+00       7.180954e-02      -7.181215e-02 
       2.800000e+00       7.180954e-02       7.180192e-02 
       2.800000e+00      -7.180453e-02       7.180192e-02 
       3.000000e+00      -7.180418e-02      -7.181287e-02 
       3.000000e+00       7.180989e-02      -7.181287e-02 
       3.000000e+00       7.180989e-02       7.180120e-02 
       3.000000e+00      -7.180418e-02       7.180120e-02 
       3.000000e+00      -7.180418e-02      -7.181287e-02 
       3.000000e+00       7.180989e-02      -7.181287e-02 
       3.000000e+00       7.180989e-02       7.180120e-02 
       3.000000e+00      -7.180418e-02       7.180120e-02 
       3.200000e+00      -7.180381e-02      -7.181363e-02 
       3.200000e+00       7.181026e-02      -7.181363e-02 
       3.200000e+00       7.181026e-02       7.180044e-02 
       3.200000e+00      -7.180381e-02       7.180044e-02 
       3.200000e+00      -7.180381e-02      -7.181363e-02 
       3.200000e+00       7.181026e-02      -7.181363e-02 
       3.200000e+00       7.181026e-02       7.180044e-02 
       3.200000e+00      -7.180381e-02       7.180044e-02 
       3.400000e+00      -7.180342e-02      -7.181443e-02 
       3.400000e+00       7.181065e-02      -7.181443e-02 
       3.400000e+00       7.181065e-02       7.179964e-02 
       3.400000e+00      -7.180341e-02       7.179964e-02 
       3.400000e+00      -7.180342e-02      -7.181443e-02 
       3.400000e+00       7.181065e-02      -7.181443e-02 
       3.400000e+00       7.181065e-02       7.179964e-02 
       3.400000e+00      -7.180341e-02       7.179964e-02 
       3.600000e+00      -7.180301e-02      -7.181527e-02 
       3.600000e+00       7.181106e-02      -7.181527e-02 
       3.600000e+00       7.181106e-02       7.179880e-02 
       3.600000e+00      -7.180300e-02       7.179880e-02 
       3.600000e+00      -7.180301e-02      -7.181527e-02 
       3.600000e+00       7.181106e-02      -7.181527e-02 
       3.600000e+00       7.181106e-02       7.179880e-02 
       3.600000e+00      -7.180300e-02       7.179880e-02 
       3.800000e+00      -7.180258e-02      -7.181615e-02 
       3.800000e+00       7.181149e-02      -7.181615e-02 
       3.800000e+00       7.181149e-02       7.179792e-02 
       3.800000e+00      -7.180257e-02       7.179792e-02 
       3.800000e+00      -7.180258e-02      -7.181615e-02 
       3.800000e+00       7.181149e-02      -7.181615e-02 
       3.800000e+00       7.181149e-02       7.179792e-02 
       3.800000e+00      -7.180257e-02       7.179792e-02 
       4.000000e+00      -7.180213e-02      -7.181706e-02 
       3.999999e+00       7.181194e-02      -7.181707e-02 
       4.000000e+00       7.181194e-02       7.179700e-02 
       4.000000e+00      -7.180213e-02       7.179700e-02 
       4.000000e+00      -7.180213e-02      -7.181706e-02 
       3.999999e+00       7.181194e-02      -7.181707e-02 
       4.000000e+00       7.181194e-02       7.179700e-02 
       4.000000e+00      -7.180213e-02       7.179700e-02 
       4.200000e+00      -7.180166e-02      -7.181802e-02 
[...]
POINT_DATA       800 
VECTORS Displacements float
      -4.77392990e-24      -1.38777878e-17      -1.38777878e-17 
      -6.55855306e-24       1.38777878e-17       0.00000000e+00 
       4.77392990e-24       1.38777878e-17       1.38777878e-17 
       6.55855306e-24      -1.38777878e-17       0.00000000e+00 
      -1.03961089e-08       1.38368449e-08      -2.83022564e-08 
      -3.03145337e-08       1.38368435e-08      -2.84554605e-08 
       1.03152196e-08       1.39900533e-08      -2.84554663e-08 
       3.02336444e-08       1.39900546e-08      -2.83022622e-08 
      -1.03961089e-08       1.38368449e-08      -2.83022564e-08 
      -3.03145337e-08       1.38368435e-08      -2.84554605e-08 
       1.03152196e-08       1.39900533e-08      -2.84554663e-08 
       3.02336444e-08       1.39900546e-08      -2.83022622e-08 
      -2.06031923e-08       5.51482835e-08      -1.12658771e-07 
      -6.00605761e-08       5.51482781e-08      -1.12965174e-07 
       2.04412274e-08       5.54547030e-08      -1.12965197e-07 
       5.98986112e-08       5.54547084e-08      -1.12658794e-07 
      -2.06031923e-08       5.51482835e-08      -1.12658771e-07 
      -6.00605761e-08       5.51482781e-08      -1.12965174e-07 
       2.04412274e-08       5.54547030e-08      -1.12965197e-07 
       5.98986112e-08       5.54547084e-08      -1.12658794e-07 
      -3.06212484e-08       1.23405864e-07      -2.52014351e-07 
      -8.92381251e-08       1.23405852e-07      -2.52473947e-07 
       3.03780253e-08       1.23865497e-07      -2.52473997e-07 
       8.89949021e-08       1.23865509e-07      -2.52014401e-07 
      -3.06212484e-08       1.23405864e-07      -2.52014351e-07 
      -8.92381251e-08       1.23405852e-07      -2.52473947e-07 
       3.03780253e-08       1.23865497e-07      -2.52473997e-07 
       8.89949021e-08       1.23865509e-07      -2.52014401e-07 
      -4.04502757e-08       2.18081133e-07      -4.45313803e-07 
      -1.17847179e-07       2.18081112e-07      -4.45926588e-07 
       4.01256149e-08       2.18693982e-07      -4.45926675e-07 
       1.17522519e-07       2.18694003e-07      -4.45313890e-07 
      -4.04502757e-08       2.18081133e-07      -4.45313803e-07 
      -1.17847179e-07       2.18081112e-07      -4.45926588e-07 
       4.01256149e-08       2.18693982e-07      -4.45926675e-07 
       1.17522519e-07       2.18694003e-07      -4.45313890e-07 
      -5.00902722e-08       3.38645639e-07      -6.91501933e-07 
      -1.45887737e-07       3.38645607e-07      -6.92267902e-07 
       4.96839982e-08       3.39411706e-07      -6.92268035e-07 
       1.45481463e-07       3.39411738e-07      -6.91502066e-07 
      -5.00902722e-08       3.38645639e-07      -6.91501933e-07 
      -1.45887737e-07       3.38645607e-07      -6.92267902e-07 
       4.96839982e-08       3.39411706e-07      -6.92268035e-07 
       1.45481463e-07       3.39411738e-07      -6.91502066e-07 
      -5.95412362e-08       4.84570929e-07      -9.89523548e-07 
      -1.73359796e-07       4.84570884e-07      -9.90442697e-07 
       5.90531770e-08       4.85490217e-07      -9.90442885e-07 
       1.72871737e-07       4.85490263e-07      -9.89523736e-07 
      -5.95412362e-08       4.84570929e-07      -9.89523548e-07 
      -1.73359796e-07       4.84570884e-07      -9.90442697e-07 
       5.90531770e-08       4.85490217e-07      -9.90442885e-07 
       1.72871737e-07       4.85490263e-07      -9.89523736e-07 
      -6.88031656e-08       6.55328551e-07      -1.33832345e-06 
      -2.00263355e-07       6.55328491e-07      -1.33939578e-06 
       6.82331525e-08       6.56401063e-07      -1.33939603e-06 
       1.99693341e-07       6.56401123e-07      -1.33832371e-06 
      -6.88031656e-08       6.55328551e-07      -1.33832345e-06 
      -2.00263355e-07       6.55328491e-07      -1.33939578e-06 
       6.82331525e-08       6.56401063e-07      -1.33939603e-06 
       1.99693341e-07       6.56401123e-07      -1.33832371e-06 
      -7.78760594e-08       8.50390054e-07      -1.73684646e-06 
      -2.26598411e-07       8.50389977e-07      -1.73807196e-06 
       7.72239268e-08       8.51615789e-07      -1.73807228e-06 
       2.25946279e-07       8.51615866e-07      -1.73684678e-06 
      -7.78760594e-08       8.50390054e-07      -1.73684646e-06 
      -2.26598411e-07       8.50389977e-07      -1.73807196e-06 
       7.72239268e-08       8.51615789e-07      -1.73807228e-06 
       2.25946279e-07       8.51615866e-07      -1.73684678e-06 
      -8.67599155e-08       1.06922698e-06      -2.18403737e-06 
      -2.52364964e-07       1.06922689e-06      -2.18541604e-06 
       8.60255018e-08       1.07060595e-06      -2.18541644e-06 
       2.51630551e-07       1.07060604e-06      -2.18403777e-06 
      -8.67599155e-08       1.06922698e-06      -2.18403737e-06 
      -2.52364964e-07       1.06922689e-06      -2.18541604e-06 
       8.60255018e-08       1.07060595e-06      -2.18541644e-06 
       2.51630551e-07       1.07060604e-06      -2.18403777e-06 
      -9.54547315e-08       1.31131089e-06      -2.67884099e-06 
      -2.77563012e-07       1.31131077e-06      -2.68037282e-06 
       9.46378793e-08       1.31284308e-06      -2.68037331e-06 
       2.76746160e-07       1.31284319e-06      -2.67884147e-06 
      -9.54547315e-08       1.31131089e-06      -2.67884099e-06 
      -2.77563012e-07       1.31131077e-06      -2.68037282e-06 
       9.46378793e-08       1.31284308e-06      -2.68037331e-06 
       2.76746160e-07       1.31284319e-06      -2.67884147e-06 
      -1.03953617e-07       1.57613035e-06      -3.22022642e-06 
      -3.02205141e-07       1.57613021e-06      -3.22189538e-06 
       1.03084060e-07       1.57779973e-06      -3.22189595e-06 
       3.01335585e-07       1.57779987e-06      -3.22022699e-06 
      -1.03953617e-07       1.57613035e-06      -3.22022642e-06 
      -3.02205141e-07       1.57613021e-06      -3.22189538e-06 
       1.03084060e-07       1.57779973e-06      -3.22189595e-06 
       3.01335585e-07       1.57779987e-06      -3.22022699e-06 
      -1.12280667e-07       1.86319430e-06      -3.80721481e-06 
      -3.26335182e-07       1.86319414e-06      -3.80902090e-06 
       1.11357992e-07       1.86500088e-06      -3.80902156e-06 
       3.25412506e-07       1.86500104e-06      -3.80721548e-06 
      -1.12280667e-07       1.86319430e-06      -3.80721481e-06 
      -3.26335182e-07       1.86319414e-06      -3.80902090e-06 
       1.11357992e-07       1.86500088e-06      -3.80902156e-06 
       3.25412506e-07       1.86500104e-06      -3.80721548e-06 
      -1.20435879e-07       2.17202892e-06      -4.43885315e-06 
      -3.49953128e-07       2.17202873e-06      -4.44079636e-06 
       1.19459677e-07       2.17397269e-06      -4.44079713e-06 
       3.48976926e-07       2.17397287e-06      -4.43885392e-06 
      -1.20435879e-07       2.17202892e-06      -4.43885315e-06 
      -3.49953128e-07       2.17202873e-06      -4.44079636e-06 
       1.19459677e-07       2.17397269e-06      -4.44079713e-06 
       3.48976926e-07       2.17397287e-06      -4.43885392e-06 
      -1.28419246e-07       2.50216034e-06      -5.11418841e-06 
      -3.73058976e-07       2.50216013e-06      -5.11626874e-06 
       1.27389121e-07       2.50424131e-06      -5.11626961e-06 
       3.72028851e-07       2.50424152e-06      -5.11418928e-06 
      -1.28419246e-07       2.50216034e-06      -5.11418841e-06 
      -3.73058976e-07       2.50216013e-06      -5.11626874e-06 
       1.27389121e-07       2.50424131e-06      -5.11626961e-06 
       3.72028851e-07       2.50424152e-06      -5.11418928e-06 
      -1.36230765e-07       2.85311472e-06      -5.83226757e-06 
      -3.95652722e-07       2.85311449e-06      -5.83448501e-06 
       1.35146327e-07       2.85533289e-06      -5.83448599e-06 
       3.94568283e-07       2.85533313e-06      -5.83226855e-06 
      -1.36230765e-07       2.85311472e-06      -5.83226757e-06 
      -3.95652722e-07       2.85311449e-06      -5.83448501e-06 
       1.35146327e-07       2.85533289e-06      -5.83448599e-06 
       3.94568283e-07       2.85533313e-06      -5.83226855e-06 
      -1.43870433e-07       3.22441822e-06      -6.59213759e-06 
      -4.17734361e-07       3.22441796e-06      -6.59449215e-06 
       1.42731301e-07       3.22677359e-06      -6.59449324e-06 
       4.16595229e-07       3.22677385e-06      -6.59213868e-06 
      -1.43870433e-07       3.22441822e-06      -6.59213759e-06 
      -4.17734361e-07       3.22441796e-06      -6.59449215e-06 
       1.42731301e-07       3.22677359e-06      -6.59449324e-06 
       4.16595229e-07       3.22677385e-06      -6.59213868e-06 
      -1.51338242e-07       3.61559700e-06      -7.39284545e-06 
      -4.39303888e-07       3.61559671e-06      -7.39533713e-06 
       1.50144046e-07       3.61808957e-06      -7.39533834e-06 
       4.38109692e-07       3.61808986e-06      -7.39284666e-06 
      -1.51338242e-07       3.61559700e-06      -7.39284545e-06 
      -4.39303888e-07       3.61559671e-06      -7.39533713e-06 
       1.50144046e-07       3.61808957e-06      -7.39533834e-06 
       4.38109692e-07       3.61808986e-06      -7.39284666e-06 
      -1.58634192e-07       4.02617720e-06      -8.23343813e-06 
      -4.60361301e-07       4.02617688e-06      -8.23606692e-06 
       1.57384567e-07       4.02880697e-06      -8.23606825e-06 
       4.59111676e-07       4.02880729e-06      -8.23343946e-06 
      -1.58634192e-07       4.02617720e-06      -8.23343813e-06 
      -4.60361301e-07       4.02617688e-06      -8.23606692e-06 
       1.57384567e-07       4.02880697e-06      -8.23606825e-06 
       4.59111676e-07       4.02880729e-06      -8.23343946e-06 
      -1.65758275e-07       4.45568498e-06      -9.11296260e-06 
      -4.80906593e-07       4.45568464e-06      -9.11572850e-06 
       1.64452869e-07       4.45845195e-06      -9.11572995e-06 
       4.79601187e-07       4.45845230e-06      -9.11296405e-06 
      -1.65758275e-07       4.45568498e-06      -9.11296260e-06 
      -4.80906593e-07       4.45568464e-06      -9.11572850e-06 
       1.64452869e-07       4.45845195e-06      -9.11572995e-06 
       4.79601187e-07       4.45845230e-06      -9.11296405e-06 
      -1.72710489e-07       4.90364650e-06      -1.00304658e-05 
      -5.00939761e-07       4.90364613e-06      -1.00333688e-05 
       1.71348955e-07       4.90655068e-06      -1.00333704e-05 
       4.99578227e-07       4.90655105e-06      -1.00304674e-05 
      -1.72710489e-07       4.90364650e-06      -1.00304658e-05 
      -5.00939761e-07       4.90364613e-06      -1.00333688e-05 
       1.71348955e-07       4.90655068e-06      -1.00333704e-05 
       4.99578227e-07       4.90655105e-06      -1.00304674e-05 
      -1.79488722e-07       5.36960501e-06      -1.09850195e-05 
      -5.20478278e-07       5.36960460e-06      -1.09880436e-05 
       1.78091786e-07       5.37263032e-06      -1.09880453e-05 
       5.19081342e-07       5.37263072e-06      -1.09850212e-05 
      -1.79488722e-07       5.36960501e-06      -1.09850195e-05 
      -5.20478278e-07       5.36960460e-06      -1.09880436e-05 
       1.78091786e-07       5.37263032e-06      -1.09880453e-05 
       5.19081342e-07       5.37263072e-06      -1.09850212e-05 
      -1.86112959e-07       5.85312426e-06      -1.19757489e-05 
      -5.39561933e-07       5.85312383e-06      -1.19788939e-05 
       1.84680125e-07       5.85627071e-06      -1.19788958e-05 
       5.38129100e-07       5.85627114e-06      -1.19757507e-05 
      -1.86112959e-07       5.85312426e-06      -1.19757489e-05 
      -5.39561933e-07       5.85312383e-06      -1.19788939e-05 
       1.84680125e-07       5.85627071e-06      -1.19788958e-05 
       5.38129100e-07       5.85627114e-06      -1.19757507e-05 
      -1.92583192e-07       6.35378527e-06      -1.30018053e-05 
      -5.58190719e-07       6.35378480e-06      -1.30050714e-05 
       1.91113981e-07       6.35705285e-06      -1.30050733e-05 
       5.56721507e-07       6.35705331e-06      -1.30018072e-05 
      -1.92583192e-07       6.35378527e-06      -1.30018053e-05 
      -5.58190719e-07       6.35378480e-06      -1.30050714e-05 
       1.91113981e-07       6.35705285e-06      -1.30050733e-05 
       5.56721507e-07       6.35705331e-06      -1.30018072e-05 
      -1.98899420e-07       6.87116903e-06      -1.40623401e-05 
      -5.76364632e-07       6.87116854e-06      -1.40657273e-05 
       1.97393355e-07       6.87455775e-06      -1.40657294e-05 
       5.74858567e-07       6.87455824e-06      -1.40623422e-05 
      -1.98899420e-07       6.87116903e-06      -1.40623401e-05 
      -5.76364632e-07       6.87116854e-06      -1.40657273e-05 
       1.97393355e-07       6.87455775e-06      -1.40657294e-05 
       5.74858567e-07       6.87455824e-06      -1.40623422e-05 
      -2.05061633e-07       7.40485657e-06      -1.51565049e-05 
      -5.94083665e-07       7.40485604e-06      -1.51600131e-05 
       2.03518255e-07       7.40836642e-06      -1.51600153e-05 
       5.92540287e-07       7.40836694e-06      -1.51565071e-05 
      -2.05061633e-07       7.40485657e-06      -1.51565049e-05 
      -5.94083665e-07       7.40485604e-06      -1.51600131e-05 
       2.03518255e-07       7.40836642e-06      -1.51600153e-05 
       5.92540287e-07       7.40836694e-06      -1.51565071e-05 
      -2.11069827e-07       7.95442888e-06      -1.62834509e-05 
      -6.11347813e-07       7.95442832e-06      -1.62870801e-05 
       2.09488687e-07       7.95805986e-06      -1.62870825e-05 
       6.09766673e-07       7.95806042e-06      -1.62834532e-05 
      -2.11069827e-07       7.95442888e-06      -1.62834509e-05 
      -6.11347813e-07       7.95442832e-06      -1.62870801e-05 
       2.09488687e-07       7.95805986e-06      -1.62870825e-05 
       6.09766673e-07       7.95806042e-06      -1.62834532e-05 
      -2.16923997e-07       8.51946697e-06      -1.74423296e-05 
      -6.28157069e-07       8.51946638e-06      -1.74460799e-05 
       2.15304658e-07       8.52321909e-06      -1.74460823e-05 
       6.26537730e-07       8.52321967e-06      -1.74423320e-05 
      -2.16923997e-07       8.51946697e-06      -1.74423296e-05 
      -6.28157069e-07       8.51946638e-06      -1.74460799e-05 
       2.15304658e-07       8.52321909e-06      -1.74460823e-05 
       6.26537730e-07       8.52321967e-06      -1.74423320e-05 
      -2.22624134e-07       9.09955184e-06      -1.86322923e-05 
      -6.44511428e-07       9.09955122e-06      -1.86361637e-05 
       2.20966172e-07       9.10342510e-06      -1.86361663e-05 
       6.42853466e-07       9.10342572e-06      -1.86322949e-05 
      -2.22624134e-07       9.09955184e-06      -1.86322923e-05 
      -6.44511428e-07       9.09955122e-06      -1.86361637e-05 
       2.20966172e-07       9.10342510e-06      -1.86361663e-05 
       6.42853466e-07       9.10342572e-06      -1.86322949e-05 
      -2.28170236e-07       9.69426452e-06      -1.98524905e-05 
      -6.60410885e-07       9.69426387e-06      -1.98564829e-05 
       2.26473235e-07       9.69825891e-06      -1.98564857e-05 
       6.58713884e-07       9.69825956e-06      -1.98524933e-05 
      -2.28170236e-07       9.69426452e-06      -1.98524905e-05 
      -6.60410885e-07       9.69426387e-06      -1.98564829e-05 
       2.26473235e-07       9.69825891e-06      -1.98564857e-05 
       6.58713884e-07       9.69825956e-06      -1.98524933e-05 
      -2.33562294e-07       1.03031860e-05      -2.11020757e-05 
      -6.75855432e-07       1.03031853e-05      -2.11061891e-05 
       2.31825853e-07       1.03073015e-05      -2.11061919e-05 
       6.74118992e-07       1.03073022e-05      -2.11020785e-05 
      -2.33562293e-07       1.03031860e-05      -2.11020757e-05 
      -6.75855432e-07       1.03031853e-05      -2.11061891e-05 
       2.31825853e-07       1.03073015e-05      -2.11061919e-05 
       6.74118992e-07       1.03073022e-05      -2.11020785e-05 
      -2.38802039e-07       1.09259145e-05      -2.23802242e-05 
      -6.90866478e-07       1.09259137e-05      -2.23844425e-05 
       2.37039897e-07       1.09301350e-05      -2.23844455e-05 
       6.89104336e-07       1.09301357e-05      -2.23802272e-05 
      -2.38802039e-07       1.09259145e-05      -2.23802242e-05 
      -6.90866478e-07       1.09259137e-05      -2.23844425e-05 
       2.37039897e-07       1.09301350e-05      -2.23844455e-05 
       6.89104336e-07       1.09301357e-05      -2.23802272e-05 
      -2.43906274e-07       1.15620687e-05      -2.36861675e-05 
      -7.05480686e-07       1.15620679e-05      -2.36904908e-05 
       2.42117952e-07       1.15663943e-05      -2.36904940e-05 
       7.03692364e-07       1.15663950e-05      -2.36861707e-05 
      -2.43906274e-07       1.15620687e-05      -2.36861675e-05 
      -7.05480686e-07       1.15620679e-05      -2.36904908e-05 
       2.42117952e-07       1.15663943e-05      -2.36904940e-05 
       7.03692364e-07       1.15663950e-05      -2.36861707e-05 
      -2.48874991e-07       1.22112847e-05      -2.50191638e-05 
      -7.19698049e-07       1.22112839e-05      -2.50235920e-05 
       2.47060024e-07       1.22157153e-05      -2.50235953e-05 
       7.17883082e-07       1.22157161e-05      -2.50191670e-05 
      -2.48874991e-07       1.22112847e-05      -2.50191638e-05 
      -7.19698049e-07       1.22112839e-05      -2.50235920e-05 
       2.47060024e-07       1.22157153e-05      -2.50235953e-05 
       7.17883082e-07       1.22157161e-05      -2.50191670e-05 
      -2.53708184e-07       1.28731986e-05      -2.63784708e-05 
      -7.33518562e-07       1.28731978e-05      -2.63830040e-05 
       2.51866118e-07       1.28777343e-05      -2.63830074e-05 
       7.31676496e-07       1.28777351e-05      -2.63784742e-05 
      -2.53708184e-07       1.28731986e-05      -2.63784708e-05 
      -7.33518562e-07       1.28731978e-05      -2.63830040e-05 
       2.51866118e-07       1.28777343e-05      -2.63830074e-05 
       7.31676496e-07       1.28777351e-05      -2.63784742e-05 
      -2.58405847e-07       1.35474465e-05      -2.77633467e-05 
      -7.46942219e-07       1.35474457e-05      -2.77679848e-05 
       2.56536241e-07       1.35520872e-05      -2.77679883e-05 
       7.45072613e-07       1.35520881e-05      -2.77633502e-05 
      -2.58405847e-07       1.35474465e-05      -2.77633467e-05 
      -7.46942219e-07       1.35474457e-05      -2.77679848e-05 
       2.56536241e-07       1.35520872e-05      -2.77679883e-05 
       7.45072613e-07       1.35520881e-05      -2.77633502e-05 
      -2.62967974e-07       1.42336644e-05      -2.91730493e-05 
      -7.59969012e-07       1.42336636e-05      -2.91777924e-05 
       2.61070400e-07       1.42384102e-05      -2.91777960e-05 
       7.58071439e-07       1.42384111e-05      -2.91730529e-05 
      -2.62967974e-07       1.42336644e-05      -2.91730493e-05 
      -7.59969012e-07       1.42336636e-05      -2.91777924e-05 
       2.61070400e-07       1.42384102e-05      -2.91777960e-05 
       7.58071439e-07       1.42384111e-05      -2.91730529e-05 
      -2.67394556e-07       1.49314885e-05      -3.06068367e-05 
      -7.72598936e-07       1.49314876e-05      -3.06116847e-05 
       2.65468602e-07       1.49363393e-05      -3.06116885e-05 
       7.70672981e-07       1.49363402e-05      -3.06068404e-05 
      -2.67394556e-07       1.49314885e-05      -3.06068367e-05 
      -7.72598936e-07       1.49314876e-05      -3.06116847e-05 
       2.65468602e-07       1.49363393e-05      -3.06116885e-05 
       7.70672981e-07       1.49363402e-05      -3.06068404e-05 
      -2.71685589e-07       1.56405547e-05      -3.20639668e-05 
      -7.84831983e-07       1.56405538e-05      -3.20689198e-05 
       2.69730854e-07       1.56455105e-05      -3.20689236e-05 
       7.82877247e-07       1.56455115e-05      -3.20639706e-05 
      -2.71685589e-07       1.56405547e-05      -3.20639668e-05 
      -7.84831983e-07       1.56405538e-05      -3.20689198e-05 