# vtk DataFile Version 2.0
./output/onsasExample_BladeCantileverBeamPitch_windVel3DDynamic 3D/onsasExample_BladeCantileverBeamPitch_windVel3DDynamic 3D_0098.vtk
ASCII
DATASET UNSTRUCTURED_GRID

POINTS 800 float
      -8.317986e-24      -7.180703e-02      -7.180703e-02 
       1.051852e-23       7.180703e-02      -7.180703e-02 
       8.317986e-24       7.180703e-02       7.180703e-02 
      -1.051852e-23      -7.180703e-02       7.180703e-02 
       2.000000e-01      -7.180702e-02      -7.180706e-02 
       2.000000e-01       7.180705e-02      -7.180706e-02 
       2.000000e-01       7.180705e-02       7.180701e-02 
       2.000000e-01      -7.180702e-02       7.180701e-02 
       2.000000e-01      -7.180702e-02      -7.180706e-02 
       2.000000e-01       7.180705e-02      -7.180706e-02 
       2.000000e-01       7.180705e-02       7.180701e-02 
       2.000000e-01      -7.180702e-02       7.180701e-02 
       4.000000e-01      -7.180698e-02      -7.180714e-02 
       3.999999e-01       7.180709e-02      -7.180714e-02 
       4.000000e-01       7.180709e-02       7.180692e-02 
       4.000001e-01      -7.180698e-02       7.180692e-02 
       4.000000e-01      -7.180698e-02      -7.180714e-02 
       3.999999e-01       7.180709e-02      -7.180714e-02 
       4.000000e-01       7.180709e-02       7.180692e-02 
       4.000001e-01      -7.180698e-02       7.180692e-02 
       6.000000e-01      -7.180691e-02      -7.180728e-02 
       5.999999e-01       7.180716e-02      -7.180728e-02 
       6.000000e-01       7.180716e-02       7.180679e-02 
       6.000001e-01      -7.180691e-02       7.180679e-02 
       6.000000e-01      -7.180691e-02      -7.180728e-02 
       5.999999e-01       7.180716e-02      -7.180728e-02 
       6.000000e-01       7.180716e-02       7.180679e-02 
       6.000001e-01      -7.180691e-02       7.180679e-02 
       8.000000e-01      -7.180682e-02      -7.180747e-02 
       7.999999e-01       7.180725e-02      -7.180747e-02 
       8.000000e-01       7.180725e-02       7.180660e-02 
       8.000001e-01      -7.180682e-02       7.180660e-02 
       8.000000e-01      -7.180682e-02      -7.180747e-02 
       7.999999e-01       7.180725e-02      -7.180747e-02 
       8.000000e-01       7.180725e-02       7.180660e-02 
       8.000001e-01      -7.180682e-02       7.180660e-02 
       1.000000e+00      -7.180670e-02      -7.180771e-02 
       9.999999e-01       7.180737e-02      -7.180771e-02 
       1.000000e+00       7.180737e-02       7.180636e-02 
       1.000000e+00      -7.180670e-02       7.180636e-02 
       1.000000e+00      -7.180670e-02      -7.180771e-02 
       9.999999e-01       7.180737e-02      -7.180771e-02 
       1.000000e+00       7.180737e-02       7.180636e-02 
       1.000000e+00      -7.180670e-02       7.180636e-02 
       1.200000e+00      -7.180655e-02      -7.180800e-02 
       1.200000e+00       7.180751e-02      -7.180800e-02 
       1.200000e+00       7.180752e-02       7.180607e-02 
       1.200000e+00      -7.180655e-02       7.180607e-02 
       1.200000e+00      -7.180655e-02      -7.180800e-02 
       1.200000e+00       7.180751e-02      -7.180800e-02 
       1.200000e+00       7.180752e-02       7.180607e-02 
       1.200000e+00      -7.180655e-02       7.180607e-02 
       1.400000e+00      -7.180638e-02      -7.180834e-02 
       1.400000e+00       7.180768e-02      -7.180834e-02 
       1.400000e+00       7.180769e-02       7.180573e-02 
       1.400000e+00      -7.180638e-02       7.180573e-02 
       1.400000e+00      -7.180638e-02      -7.180834e-02 
       1.400000e+00       7.180768e-02      -7.180834e-02 
       1.400000e+00       7.180769e-02       7.180573e-02 
       1.400000e+00      -7.180638e-02       7.180573e-02 
       1.600000e+00      -7.180619e-02      -7.180872e-02 
       1.600000e+00       7.180788e-02      -7.180872e-02 
       1.600000e+00       7.180788e-02       7.180534e-02 
       1.600000e+00      -7.180619e-02       7.180534e-02 
       1.600000e+00      -7.180619e-02      -7.180872e-02 
       1.600000e+00       7.180788e-02      -7.180872e-02 
       1.600000e+00       7.180788e-02       7.180534e-02 
       1.600000e+00      -7.180619e-02       7.180534e-02 
       1.800000e+00      -7.180597e-02      -7.180916e-02 
       1.800000e+00       7.180810e-02      -7.180916e-02 
       1.800000e+00       7.180810e-02       7.180491e-02 
       1.800000e+00      -7.180597e-02       7.180491e-02 
       1.800000e+00      -7.180597e-02      -7.180916e-02 
       1.800000e+00       7.180810e-02      -7.180916e-02 
       1.800000e+00       7.180810e-02       7.180491e-02 
       1.800000e+00      -7.180597e-02       7.180491e-02 
       2.000000e+00      -7.180573e-02      -7.180964e-02 
       2.000000e+00       7.180834e-02      -7.180964e-02 
       2.000000e+00       7.180834e-02       7.180443e-02 
       2.000000e+00      -7.180573e-02       7.180443e-02 
       2.000000e+00      -7.180573e-02      -7.180964e-02 
       2.000000e+00       7.180834e-02      -7.180964e-02 
       2.000000e+00       7.180834e-02       7.180443e-02 
       2.000000e+00      -7.180573e-02       7.180443e-02 
       2.200000e+00      -7.180547e-02      -7.181017e-02 
       2.200000e+00       7.180860e-02      -7.181017e-02 
       2.200000e+00       7.180860e-02       7.180390e-02 
       2.200000e+00      -7.180547e-02       7.180390e-02 
       2.200000e+00      -7.180547e-02      -7.181017e-02 
       2.200000e+00       7.180860e-02      -7.181017e-02 
       2.200000e+00       7.180860e-02       7.180390e-02 
       2.200000e+00      -7.180547e-02       7.180390e-02 
       2.400000e+00      -7.180518e-02      -7.181074e-02 
       2.400000e+00       7.180888e-02      -7.181074e-02 
       2.400000e+00       7.180889e-02       7.180333e-02 
       2.400000e+00      -7.180518e-02       7.180333e-02 
       2.400000e+00      -7.180518e-02      -7.181074e-02 
       2.400000e+00       7.180888e-02      -7.181074e-02 
       2.400000e+00       7.180889e-02       7.180333e-02 
       2.400000e+00      -7.180518e-02       7.180333e-02 
       2.600000e+00      -7.180488e-02      -7.181135e-02 
       2.600000e+00       7.180919e-02      -7.181135e-02 
       2.600000e+00       7.180919e-02       7.180271e-02 
       2.600000e+00      -7.180487e-02       7.180271e-02 
       2.600000e+00      -7.180488e-02      -7.181135e-02 
       2.600000e+00       7.180919e-02      -7.181135e-02 
       2.600000e+00       7.180919e-02       7.180271e-02 
       2.600000e+00      -7.180487e-02       7.180271e-02 
       2.800000e+00      -7.180455e-02      -7.181201e-02 
       2.800000e+00       7.180952e-02      -7.181201e-02 
       2.800000e+00       7.180952e-02       7.180206e-02 
       2.800000e+00      -7.180455e-02       7.180206e-02 
       2.800000e+00      -7.180455e-02      -7.181201e-02 
       2.800000e+00       7.180952e-02      -7.181201e-02 
       2.800000e+00       7.180952e-02       7.180206e-02 
       2.800000e+00      -7.180455e-02       7.180206e-02 
       3.000000e+00      -7.180420e-02      -7.181271e-02 
       3.000000e+00       7.180987e-02      -7.181271e-02 
       3.000000e+00       7.180987e-02       7.180136e-02 
       3.000000e+00      -7.180420e-02       7.180136e-02 
       3.000000e+00      -7.180420e-02      -7.181271e-02 
       3.000000e+00       7.180987e-02      -7.181271e-02 
       3.000000e+00       7.180987e-02       7.180136e-02 
       3.000000e+00      -7.180420e-02       7.180136e-02 
       3.200000e+00      -7.180383e-02      -7.181345e-02 
       3.200000e+00       7.181024e-02      -7.181345e-02 
       3.200000e+00       7.181024e-02       7.180062e-02 
       3.200000e+00      -7.180383e-02       7.180062e-02 
       3.200000e+00      -7.180383e-02      -7.181345e-02 
       3.200000e+00       7.181024e-02      -7.181345e-02 
       3.200000e+00       7.181024e-02       7.180062e-02 
       3.200000e+00      -7.180383e-02       7.180062e-02 
       3.400000e+00      -7.180344e-02      -7.181422e-02 
       3.400000e+00       7.181062e-02      -7.181423e-02 
       3.400000e+00       7.181063e-02       7.179984e-02 
       3.400000e+00      -7.180344e-02       7.179984e-02 
       3.400000e+00      -7.180344e-02      -7.181422e-02 
       3.400000e+00       7.181062e-02      -7.181423e-02 
       3.400000e+00       7.181063e-02       7.179984e-02 
       3.400000e+00      -7.180344e-02       7.179984e-02 
       3.600000e+00      -7.180303e-02      -7.181504e-02 
       3.600000e+00       7.181103e-02      -7.181505e-02 
       3.600000e+00       7.181103e-02       7.179902e-02 
       3.600000e+00      -7.180303e-02       7.179902e-02 
       3.600000e+00      -7.180303e-02      -7.181504e-02 
       3.600000e+00       7.181103e-02      -7.181505e-02 
       3.600000e+00       7.181103e-02       7.179902e-02 
       3.600000e+00      -7.180303e-02       7.179902e-02 
       3.800000e+00      -7.180261e-02      -7.181590e-02 
       3.800000e+00       7.181146e-02      -7.181590e-02 
       3.800000e+00       7.181146e-02       7.179817e-02 
       3.800000e+00      -7.180261e-02       7.179817e-02 
       3.800000e+00      -7.180261e-02      -7.181590e-02 
       3.800000e+00       7.181146e-02      -7.181590e-02 
       3.800000e+00       7.181146e-02       7.179817e-02 
       3.800000e+00      -7.180261e-02       7.179817e-02 
       4.000000e+00      -7.180216e-02      -7.181679e-02 
       4.000000e+00       7.181190e-02      -7.181679e-02 
       4.000000e+00       7.181191e-02       7.179727e-02 
       4.000000e+00      -7.180216e-02       7.179728e-02 
       4.000000e+00      -7.180216e-02      -7.181679e-02 
       4.000000e+00       7.181190e-02      -7.181679e-02 
       4.000000e+00       7.181191e-02       7.179727e-02 
       4.000000e+00      -7.180216e-02       7.179728e-02 
       4.200000e+00      -7.180170e-02      -7.181772e-02 
[...]
POINT_DATA       800 
VECTORS Displacements float
      -8.31798633e-24       0.00000000e+00       0.00000000e+00 
       1.05185155e-23       0.00000000e+00       0.00000000e+00 
       8.31798633e-24       0.00000000e+00       0.00000000e+00 
      -1.05185155e-23       0.00000000e+00       0.00000000e+00 
      -9.91233454e-09       1.37486136e-08      -2.75374861e-08 
      -2.97026718e-08       1.37486123e-08      -2.76885527e-08 
       9.83033302e-09       1.38996843e-08      -2.76885582e-08 
       2.96206703e-08       1.38996857e-08      -2.75374915e-08 
      -9.91233454e-09       1.37486136e-08      -2.75374861e-08 
      -2.97026718e-08       1.37486123e-08      -2.76885527e-08 
       9.83033302e-09       1.38996843e-08      -2.76885582e-08 
       2.96206703e-08       1.38996857e-08      -2.75374915e-08 
      -1.96444727e-08       5.47941116e-08      -1.09614845e-07 
      -5.88466407e-08       5.47941063e-08      -1.09916973e-07 
       1.94802919e-08       5.50962556e-08      -1.09916994e-07 
       5.86824599e-08       5.50962610e-08      -1.09614866e-07 
      -1.96444727e-08       5.47941116e-08      -1.09614845e-07 
      -5.88466407e-08       5.47941063e-08      -1.09916973e-07 
       1.94802919e-08       5.50962556e-08      -1.09916994e-07 
       5.86824599e-08       5.50962610e-08      -1.09614866e-07 
      -2.91964127e-08       1.22609378e-07      -2.45202823e-07 
      -8.74319047e-08       1.22609366e-07      -2.45656007e-07 
       2.89498785e-08       1.23062598e-07      -2.45656054e-07 
       8.71853706e-08       1.23062609e-07      -2.45202870e-07 
      -2.91964127e-08       1.22609378e-07      -2.45202823e-07 
      -8.74319047e-08       1.22609366e-07      -2.45656007e-07 
       2.89498785e-08       1.23062598e-07      -2.45656054e-07 
       8.71853706e-08       1.23062609e-07      -2.45202870e-07 
      -3.85681531e-08       2.16667296e-07      -4.33272164e-07 
      -1.15458463e-07       2.16667275e-07      -4.33876400e-07 
       3.82390941e-08       2.17271594e-07      -4.33876483e-07 
       1.15129404e-07       2.17271614e-07      -4.33272247e-07 
      -3.85681531e-08       2.16667296e-07      -4.33272164e-07 
      -1.15458463e-07       2.16667275e-07      -4.33876400e-07 
       3.82390941e-08       2.17271594e-07      -4.33876483e-07 
       1.15129404e-07       2.17271614e-07      -4.33272247e-07 
      -4.77596921e-08       3.36440749e-07      -6.72793616e-07 
      -1.42926313e-07       3.36440718e-07      -6.73548900e-07 
       4.73479407e-08       3.37196127e-07      -6.73549026e-07 
       1.42514561e-07       3.37196159e-07      -6.72793742e-07 
      -4.77596921e-08       3.36440749e-07      -6.72793616e-07 
      -1.42926313e-07       3.36440718e-07      -6.73548900e-07 
       4.73479407e-08       3.37196127e-07      -6.73549026e-07 
       1.42514561e-07       3.37196159e-07      -6.72793742e-07 
      -5.67710279e-08       4.81402622e-07      -9.62737924e-07 
      -1.69835453e-07       4.81402577e-07      -9.63644251e-07 
       5.62764202e-08       4.82309082e-07      -9.63644429e-07 
       1.69340845e-07       4.82309127e-07      -9.62738102e-07 
      -5.67710279e-08       4.81402622e-07      -9.62737924e-07 
      -1.69835453e-07       4.81402577e-07      -9.63644251e-07 
       5.62764202e-08       4.82309082e-07      -9.63644429e-07 
       1.69340845e-07       4.82309127e-07      -9.62738102e-07 
      -6.56021590e-08       6.51025797e-07      -1.30207583e-06 
      -1.96185882e-07       6.51025738e-07      -1.30313320e-06 
       6.50245335e-08       6.52083342e-07      -1.30313344e-06 
       1.95608256e-07       6.52083402e-07      -1.30207607e-06 
      -6.56021590e-08       6.51025797e-07      -1.30207583e-06 
      -1.96185882e-07       6.51025738e-07      -1.30313320e-06 
       6.50245335e-08       6.52083342e-07      -1.30313344e-06 
       1.95608256e-07       6.52083402e-07      -1.30207607e-06 
      -7.42530835e-08       8.44783160e-07      -1.68977809e-06 
      -2.21977597e-07       8.44783084e-07      -1.69098649e-06 
       7.35922832e-08       8.45991790e-07      -1.69098680e-06 
       2.21316797e-07       8.45991866e-07      -1.68977839e-06 
      -7.42530835e-08       8.44783160e-07      -1.68977809e-06 
      -2.21977597e-07       8.44783084e-07      -1.69098649e-06 
       7.35922832e-08       8.45991790e-07      -1.69098680e-06 
       2.21316797e-07       8.45991866e-07      -1.68977839e-06 
      -8.27237998e-08       1.06214759e-06      -2.12481544e-06 
      -2.47210598e-07       1.06214750e-06      -2.12617487e-06 
       8.19796702e-08       1.06350731e-06      -2.12617525e-06 
       2.46466469e-07       1.06350740e-06      -2.12481582e-06 
      -8.27237998e-08       1.06214759e-06      -2.12481544e-06 
      -2.47210598e-07       1.06214750e-06      -2.12617487e-06 
       8.19796702e-08       1.06350731e-06      -2.12617525e-06 
       2.46466469e-07       1.06350740e-06      -2.12481582e-06 
      -9.10143063e-08       1.30259198e-06      -2.60615863e-06 
      -2.71884883e-07       1.30259186e-06      -2.60766909e-06 
       9.01866972e-08       1.30410279e-06      -2.60766955e-06 
       2.71057274e-07       1.30410290e-06      -2.60615908e-06 
      -9.10143065e-08       1.30259198e-06      -2.60615863e-06 
      -2.71884883e-07       1.30259186e-06      -2.60766909e-06 
       9.01866968e-08       1.30410279e-06      -2.60766955e-06 
       2.71057274e-07       1.30410290e-06      -2.60615908e-06 
      -9.91195717e-08       1.56560666e-06      -3.13280509e-06 
      -2.96015706e-07       1.56560653e-06      -3.13445061e-06 
       9.82377411e-08       1.56725259e-06      -3.13445116e-06 
       2.95133876e-07       1.56725273e-06      -3.13280563e-06 
      -9.91195717e-08       1.56560666e-06      -3.13280509e-06 
      -2.96015706e-07       1.56560653e-06      -3.13445061e-06 
       9.82377411e-08       1.56725259e-06      -3.13445116e-06 
       2.95133876e-07       1.56725273e-06      -3.13280563e-06 
      -1.07063003e-07       1.85070322e-06      -3.70380741e-06 
      -3.19646267e-07       1.85070307e-06      -3.70558799e-06 
       1.06126556e-07       1.85248428e-06      -3.70558862e-06 
       3.18709820e-07       1.85248443e-06      -3.70380804e-06 
      -1.07063003e-07       1.85070322e-06      -3.70380741e-06 
      -3.19646267e-07       1.85070307e-06      -3.70558799e-06 
       1.06126556e-07       1.85248428e-06      -3.70558862e-06 
       3.18709820e-07       1.85248443e-06      -3.70380804e-06 
      -1.14844598e-07       2.15741036e-06      -4.31824298e-06 
      -3.42776563e-07       2.15741018e-06      -4.32015861e-06 
       1.13853146e-07       2.15932654e-06      -4.32015934e-06 
       3.41785111e-07       2.15932672e-06      -4.31824371e-06 
      -1.14844598e-07       2.15741036e-06      -4.31824298e-06 
      -3.42776563e-07       2.15741018e-06      -4.32015861e-06 
       1.13853146e-07       2.15932654e-06      -4.32015934e-06 
       3.41785111e-07       2.15932672e-06      -4.31824371e-06 
      -1.22464350e-07       2.48525678e-06      -4.97518920e-06 
      -3.65406588e-07       2.48525657e-06      -4.97723989e-06 
       1.21417514e-07       2.48730808e-06      -4.97724071e-06 
       3.64359752e-07       2.48730828e-06      -4.97519003e-06 
      -1.22464350e-07       2.48525678e-06      -4.97518920e-06 
      -3.65406588e-07       2.48525657e-06      -4.97723989e-06 
       1.21417514e-07       2.48730808e-06      -4.97724071e-06 
       3.64359752e-07       2.48730828e-06      -4.97519003e-06 
      -1.29922257e-07       2.83377116e-06      -5.67372348e-06 
      -3.87536338e-07       2.83377093e-06      -5.67590921e-06 
       1.28819665e-07       2.83595759e-06      -5.67591014e-06 
       3.86433747e-07       2.83595782e-06      -5.67372441e-06 
      -1.29922257e-07       2.83377116e-06      -5.67372348e-06 
      -3.87536338e-07       2.83377093e-06      -5.67590921e-06 
       1.28819665e-07       2.83595759e-06      -5.67591014e-06 
       3.86433747e-07       2.83595782e-06      -5.67372441e-06 
      -1.37218314e-07       3.20248221e-06      -6.41292321e-06 
      -4.09165811e-07       3.20248196e-06      -6.41524399e-06 
       1.36059604e-07       3.20480377e-06      -6.41524503e-06 
       4.08007101e-07       3.20480403e-06      -6.41292425e-06 
      -1.37218314e-07       3.20248221e-06      -6.41292321e-06 
      -4.09165811e-07       3.20248196e-06      -6.41524399e-06 
       1.36059604e-07       3.20480377e-06      -6.41524503e-06 
       4.08007101e-07       3.20480403e-06      -6.41292425e-06 
      -1.44352517e-07       3.59091863e-06      -7.19186580e-06 
      -4.30295000e-07       3.59091835e-06      -7.19432162e-06 
       1.43137334e-07       3.59337531e-06      -7.19432277e-06 
       4.29079817e-07       3.59337560e-06      -7.19186694e-06 
      -1.44352517e-07       3.59091863e-06      -7.19186580e-06 
      -4.30295000e-07       3.59091835e-06      -7.19432162e-06 
       1.43137334e-07       3.59337531e-06      -7.19432277e-06 
       4.29079817e-07       3.59337560e-06      -7.19186694e-06 
      -1.51324861e-07       3.99860911e-06      -8.00962864e-06 
      -4.50923903e-07       3.99860880e-06      -8.01221951e-06 
       1.50052859e-07       4.00120092e-06      -8.01222077e-06 
       4.49651901e-07       4.00120124e-06      -8.00962990e-06 
      -1.51324861e-07       3.99860911e-06      -8.00962864e-06 
      -4.50923903e-07       3.99860880e-06      -8.01221951e-06 
       1.50052859e-07       4.00120092e-06      -8.01222077e-06 
       4.49651901e-07       4.00120124e-06      -8.00962990e-06 
      -1.58135343e-07       4.42508236e-06      -8.86528914e-06 
      -4.71052514e-07       4.42508201e-06      -8.86801505e-06 
       1.56806184e-07       4.42780930e-06      -8.86801642e-06 
       4.69723355e-07       4.42780964e-06      -8.86529051e-06 
      -1.58135343e-07       4.42508236e-06      -8.86528914e-06 
      -4.71052514e-07       4.42508201e-06      -8.86801505e-06 
       1.56806184e-07       4.42780930e-06      -8.86801642e-06 
       4.69723355e-07       4.42780964e-06      -8.86529051e-06 
      -1.64783958e-07       4.86986705e-06      -9.75792469e-06 
      -4.90680832e-07       4.86986668e-06      -9.76078565e-06 
       1.63397312e-07       4.87272912e-06      -9.76078714e-06 
       4.89294185e-07       4.87272949e-06      -9.75792618e-06 
      -1.64783959e-07       4.86986705e-06      -9.75792469e-06 
      -4.90680832e-07       4.86986668e-06      -9.76078565e-06 
       1.63397312e-07       4.87272912e-06      -9.76078714e-06 
       4.89294185e-07       4.87272949e-06      -9.75792618e-06 
      -1.71269493e-07       5.33250923e-06      -1.06866386e-05 
      -5.09827693e-07       5.33250883e-06      -1.06896187e-05 
       1.69845697e-07       5.33549049e-06      -1.06896203e-05 
       5.08403897e-07       5.33549088e-06      -1.06866402e-05 
      -1.71269493e-07       5.33250923e-06      -1.06866386e-05 
      -5.09827693e-07       5.33250883e-06      -1.06896187e-05 
       1.69845697e-07       5.33549049e-06      -1.06896203e-05 
       5.08403897e-07       5.33549088e-06      -1.06866402e-05 
      -1.77610848e-07       5.81257587e-06      -1.16505880e-05 
      -5.28531710e-07       5.81257544e-06      -1.16536871e-05 
       1.76149429e-07       5.81567632e-06      -1.16536889e-05 
       5.27070292e-07       5.81567674e-06      -1.16505897e-05 
      -1.77610848e-07       5.81257587e-06      -1.16505880e-05 
      -5.28531710e-07       5.81257544e-06      -1.16536871e-05 
       1.76149429e-07       5.81567632e-06      -1.16536889e-05 
       5.27070292e-07       5.81567674e-06      -1.16505897e-05 
      -1.83808017e-07       6.30965106e-06      -1.26489546e-05 
      -5.46792877e-07       6.30965060e-06      -1.26521728e-05 
       1.82308517e-07       6.31287069e-06      -1.26521747e-05 
       5.45293377e-07       6.31287115e-06      -1.26489564e-05 
      -1.83808017e-07       6.30965106e-06      -1.26489546e-05 
      -5.46792877e-07       6.30965060e-06      -1.26521728e-05 
       1.82308517e-07       6.31287069e-06      -1.26521747e-05 
       5.45293377e-07       6.31287115e-06      -1.26489564e-05 
      -1.89860996e-07       6.82331885e-06      -1.36809203e-05 
      -5.64611190e-07       6.82331837e-06      -1.36842576e-05 
       1.88322962e-07       6.82665767e-06      -1.36842596e-05 
       5.63073154e-07       6.82665816e-06      -1.36809222e-05 
      -1.89860996e-07       6.82331885e-06      -1.36809203e-05 
      -5.64611190e-07       6.82331837e-06      -1.36842576e-05 
       1.88322962e-07       6.82665767e-06      -1.36842596e-05 
       5.63073154e-07       6.82665816e-06      -1.36809222e-05 
      -1.95769780e-07       7.35316334e-06      -1.47456669e-05 
      -5.81986641e-07       7.35316282e-06      -1.47491233e-05 
       1.94192770e-07       7.35662135e-06      -1.47491254e-05 
       5.80409631e-07       7.35662187e-06      -1.47456689e-05 
      -1.95769780e-07       7.35316334e-06      -1.47456669e-05 
      -5.81986641e-07       7.35316282e-06      -1.47491233e-05 
       1.94192770e-07       7.35662135e-06      -1.47491254e-05 
       5.80409631e-07       7.35662187e-06      -1.47456689e-05 
      -2.01534363e-07       7.89876859e-06      -1.58423762e-05 
      -5.98919227e-07       7.89876804e-06      -1.58459518e-05 
       1.99917949e-07       7.90234578e-06      -1.58459540e-05 
       5.97302813e-07       7.90234633e-06      -1.58423784e-05 
      -2.01534363e-07       7.89876859e-06      -1.58423762e-05 
      -5.98919227e-07       7.89876804e-06      -1.58459518e-05 
       1.99917949e-07       7.90234578e-06      -1.58459540e-05 
       5.97302813e-07       7.90234633e-06      -1.58423784e-05 
      -2.07154738e-07       8.45971867e-06      -1.69702302e-05 
      -6.15408942e-07       8.45971809e-06      -1.69739248e-05 
       2.05498503e-07       8.46341505e-06      -1.69739272e-05 
       6.13752706e-07       8.46341563e-06      -1.69702325e-05 
      -2.07154738e-07       8.45971867e-06      -1.69702302e-05 
      -6.15408942e-07       8.45971809e-06      -1.69739248e-05 
       2.05498503e-07       8.46341505e-06      -1.69739272e-05 
       6.13752706e-07       8.46341563e-06      -1.69702325e-05 
      -2.12630900e-07       9.03559765e-06      -1.81284106e-05 
      -6.31455777e-07       9.03559704e-06      -1.81322243e-05 
       2.10934438e-07       9.03941322e-06      -1.81322268e-05 
       6.29759315e-07       9.03941383e-06      -1.81284131e-05 
      -2.12630900e-07       9.03559765e-06      -1.81284106e-05 
      -6.31455777e-07       9.03559704e-06      -1.81322243e-05 
       2.10934438e-07       9.03941322e-06      -1.81322268e-05 
       6.29759315e-07       9.03941383e-06      -1.81284131e-05 
      -2.17962845e-07       9.62598962e-06      -1.93160993e-05 
      -6.47059731e-07       9.62598898e-06      -1.93200321e-05 
       2.16225759e-07       9.62992438e-06      -1.93200347e-05 
       6.45322644e-07       9.62992502e-06      -1.93161019e-05 
      -2.17962845e-07       9.62598962e-06      -1.93160993e-05 
      -6.47059731e-07       9.62598898e-06      -1.93200321e-05 
       2.16225759e-07       9.62992438e-06      -1.93200347e-05 
       6.45322644e-07       9.62992502e-06      -1.93161019e-05 
      -2.23150566e-07       1.02304786e-05      -2.05324781e-05 
      -6.62220796e-07       1.02304780e-05      -2.05365300e-05 
       2.21372471e-07       1.02345326e-05      -2.05365328e-05 
       6.60442701e-07       1.02345333e-05      -2.05324808e-05 
      -2.23150567e-07       1.02304786e-05      -2.05324781e-05 
      -6.62220797e-07       1.02304780e-05      -2.05365300e-05 
       2.21372471e-07       1.02345326e-05      -2.05365328e-05 
       6.60442701e-07       1.02345333e-05      -2.05324808e-05 
      -2.28195908e-07       1.08486660e-05      -2.17767543e-05 
      -6.76960703e-07       1.08486653e-05      -2.17809094e-05 
       2.26390240e-07       1.08528232e-05      -2.17809122e-05 
       6.75155035e-07       1.08528239e-05      -2.17767571e-05 
      -2.28195908e-07       1.08486660e-05      -2.17767543e-05 
      -6.76960703e-07       1.08486653e-05      -2.17809094e-05 
       2.26390240e-07       1.08528232e-05      -2.17809122e-05 
       6.75155035e-07       1.08528239e-05      -2.17767571e-05 
      -2.33114380e-07       1.14801738e-05      -2.30481880e-05 
      -6.91314629e-07       1.14801731e-05      -2.30524463e-05 
       2.31280681e-07       1.14844343e-05      -2.30524492e-05 
       6.89480929e-07       1.14844350e-05      -2.30481910e-05 
      -2.33114380e-07       1.14801738e-05      -2.30481880e-05 
      -6.91314629e-07       1.14801731e-05      -2.30524463e-05 
       2.31280681e-07       1.14844343e-05      -2.30524492e-05 
       6.89480929e-07       1.14844350e-05      -2.30481910e-05 
      -2.37905974e-07       1.21246412e-05      -2.43460644e-05 
      -7.05282563e-07       1.21246404e-05      -2.43504259e-05 
       2.36043800e-07       1.21290049e-05      -2.43504289e-05 
       7.03420389e-07       1.21290057e-05      -2.43460675e-05 
      -2.37905974e-07       1.21246412e-05      -2.43460644e-05 
      -7.05282563e-07       1.21246404e-05      -2.43504259e-05 
       2.36043800e-07       1.21290049e-05      -2.43504289e-05 
       7.03420389e-07       1.21290057e-05      -2.43460675e-05 
      -2.42570688e-07       1.27817073e-05      -2.56696687e-05 
      -7.18864505e-07       1.27817065e-05      -2.56741333e-05 
       2.40679602e-07       1.27861743e-05      -2.56741365e-05 
       7.16973418e-07       1.27861751e-05      -2.56696719e-05 
      -2.42570688e-07       1.27817073e-05      -2.56696687e-05 
      -7.18864505e-07       1.27817065e-05      -2.56741333e-05 
       2.40679602e-07       1.27861743e-05      -2.56741365e-05 
       7.16973418e-07       1.27861751e-05      -2.56696719e-05 
      -2.47108514e-07       1.34510113e-05      -2.70182859e-05 
      -7.32060446e-07       1.34510105e-05      -2.70228537e-05 
       2.45188093e-07       1.34555816e-05      -2.70228570e-05 
       7.30140026e-07       1.34555824e-05      -2.70182892e-05 
      -2.47108514e-07       1.34510113e-05      -2.70182859e-05 
      -7.32060446e-07       1.34510105e-05      -2.70228537e-05 
       2.45188093e-07       1.34555816e-05      -2.70228570e-05 
       7.30140026e-07       1.34555824e-05      -2.70182892e-05 
      -2.51519445e-07       1.41321924e-05      -2.83912013e-05 
      -7.44870380e-07       1.41321916e-05      -2.83958723e-05 
       2.49569280e-07       1.41368659e-05      -2.83958757e-05 
       7.42920216e-07       1.41368668e-05      -2.83912047e-05 
      -2.51519445e-07       1.41321924e-05      -2.83912013e-05 
      -7.44870380e-07       1.41321916e-05      -2.83958723e-05 
       2.49569280e-07       1.41368659e-05      -2.83958757e-05 
       7.42920216e-07       1.41368668e-05      -2.83912047e-05 
      -2.55803476e-07       1.48248897e-05      -2.97877000e-05 
      -7.57294303e-07       1.48248888e-05      -2.97924741e-05 
       2.53823170e-07       1.48296665e-05      -2.97924777e-05 
       7.55313996e-07       1.48296674e-05      -2.97877035e-05 
      -2.55803476e-07       1.48248897e-05      -2.97877000e-05 
      -7.57294303e-07       1.48248888e-05      -2.97924741e-05 
       2.53823170e-07       1.48296665e-05      -2.97924777e-05 
       7.55313996e-07       1.48296674e-05      -2.97877035e-05 
      -2.59960601e-07       1.55287423e-05      -3.12070671e-05 
      -7.69332205e-07       1.55287414e-05      -3.12119444e-05 
       2.57949768e-07       1.55336224e-05      -3.12119481e-05 
       7.67321373e-07       1.55336233e-05      -3.12070708e-05 
      -2.59960601e-07       1.55287423e-05      -3.12070671e-05 
      -7.69332205e-07       1.55287414e-05      -3.12119444e-05 