# vtk DataFile Version 2.0
./output/onsasExample_BladeCantileverBeamPitch_windVel3DDynamic 3D/onsasExample_BladeCantileverBeamPitch_windVel3DDynamic 3D_0355.vtk
ASCII
DATASET UNSTRUCTURED_GRID

POINTS 800 float
       3.350568e-23      -7.180703e-02      -7.180703e-02 
       6.162158e-23       7.180703e-02      -7.180703e-02 
      -3.350568e-23       7.180703e-02       7.180703e-02 
      -6.162158e-23      -7.180703e-02       7.180703e-02 
       2.000000e-01      -7.180702e-02      -7.180706e-02 
       2.000000e-01       7.180705e-02      -7.180706e-02 
       2.000000e-01       7.180705e-02       7.180700e-02 
       2.000000e-01      -7.180702e-02       7.180700e-02 
       2.000000e-01      -7.180702e-02      -7.180706e-02 
       2.000000e-01       7.180705e-02      -7.180706e-02 
       2.000000e-01       7.180705e-02       7.180700e-02 
       2.000000e-01      -7.180702e-02       7.180700e-02 
       4.000000e-01      -7.180698e-02      -7.180715e-02 
       3.999999e-01       7.180709e-02      -7.180715e-02 
       4.000000e-01       7.180709e-02       7.180692e-02 
       4.000001e-01      -7.180698e-02       7.180692e-02 
       4.000000e-01      -7.180698e-02      -7.180715e-02 
       3.999999e-01       7.180709e-02      -7.180715e-02 
       4.000000e-01       7.180709e-02       7.180692e-02 
       4.000001e-01      -7.180698e-02       7.180692e-02 
       6.000000e-01      -7.180691e-02      -7.180729e-02 
       5.999999e-01       7.180716e-02      -7.180729e-02 
       6.000000e-01       7.180716e-02       7.180678e-02 
       6.000001e-01      -7.180691e-02       7.180678e-02 
       6.000000e-01      -7.180691e-02      -7.180729e-02 
       5.999999e-01       7.180716e-02      -7.180729e-02 
       6.000000e-01       7.180716e-02       7.180678e-02 
       6.000001e-01      -7.180691e-02       7.180678e-02 
       8.000000e-01      -7.180682e-02      -7.180748e-02 
       7.999999e-01       7.180725e-02      -7.180748e-02 
       8.000000e-01       7.180725e-02       7.180659e-02 
       8.000001e-01      -7.180681e-02       7.180659e-02 
       8.000000e-01      -7.180682e-02      -7.180748e-02 
       7.999999e-01       7.180725e-02      -7.180748e-02 
       8.000000e-01       7.180725e-02       7.180659e-02 
       8.000001e-01      -7.180681e-02       7.180659e-02 
       9.999999e-01      -7.180670e-02      -7.180773e-02 
       9.999999e-01       7.180737e-02      -7.180773e-02 
       1.000000e+00       7.180737e-02       7.180634e-02 
       1.000000e+00      -7.180669e-02       7.180634e-02 
       9.999999e-01      -7.180670e-02      -7.180773e-02 
       9.999999e-01       7.180737e-02      -7.180773e-02 
       1.000000e+00       7.180737e-02       7.180634e-02 
       1.000000e+00      -7.180669e-02       7.180634e-02 
       1.200000e+00      -7.180655e-02      -7.180803e-02 
       1.200000e+00       7.180752e-02      -7.180803e-02 
       1.200000e+00       7.180752e-02       7.180604e-02 
       1.200000e+00      -7.180655e-02       7.180604e-02 
       1.200000e+00      -7.180655e-02      -7.180803e-02 
       1.200000e+00       7.180752e-02      -7.180803e-02 
       1.200000e+00       7.180752e-02       7.180604e-02 
       1.200000e+00      -7.180655e-02       7.180604e-02 
       1.400000e+00      -7.180638e-02      -7.180838e-02 
       1.400000e+00       7.180769e-02      -7.180838e-02 
       1.400000e+00       7.180769e-02       7.180569e-02 
       1.400000e+00      -7.180638e-02       7.180569e-02 
       1.400000e+00      -7.180638e-02      -7.180838e-02 
       1.400000e+00       7.180769e-02      -7.180838e-02 
       1.400000e+00       7.180769e-02       7.180569e-02 
       1.400000e+00      -7.180638e-02       7.180569e-02 
       1.600000e+00      -7.180619e-02      -7.180878e-02 
       1.600000e+00       7.180788e-02      -7.180878e-02 
       1.600000e+00       7.180788e-02       7.180529e-02 
       1.600000e+00      -7.180618e-02       7.180529e-02 
       1.600000e+00      -7.180619e-02      -7.180878e-02 
       1.600000e+00       7.180788e-02      -7.180878e-02 
       1.600000e+00       7.180788e-02       7.180529e-02 
       1.600000e+00      -7.180618e-02       7.180529e-02 
       1.800000e+00      -7.180597e-02      -7.180922e-02 
       1.800000e+00       7.180810e-02      -7.180923e-02 
       1.800000e+00       7.180810e-02       7.180484e-02 
       1.800000e+00      -7.180597e-02       7.180484e-02 
       1.800000e+00      -7.180597e-02      -7.180922e-02 
       1.800000e+00       7.180810e-02      -7.180923e-02 
       1.800000e+00       7.180810e-02       7.180484e-02 
       1.800000e+00      -7.180597e-02       7.180484e-02 
       2.000000e+00      -7.180573e-02      -7.180972e-02 
       2.000000e+00       7.180834e-02      -7.180972e-02 
       2.000000e+00       7.180834e-02       7.180434e-02 
       2.000000e+00      -7.180572e-02       7.180435e-02 
       2.000000e+00      -7.180573e-02      -7.180972e-02 
       2.000000e+00       7.180834e-02      -7.180972e-02 
       2.000000e+00       7.180834e-02       7.180434e-02 
       2.000000e+00      -7.180572e-02       7.180435e-02 
       2.200000e+00      -7.180546e-02      -7.181026e-02 
       2.200000e+00       7.180860e-02      -7.181027e-02 
       2.200000e+00       7.180861e-02       7.180380e-02 
       2.200000e+00      -7.180546e-02       7.180380e-02 
       2.200000e+00      -7.180546e-02      -7.181026e-02 
       2.200000e+00       7.180860e-02      -7.181027e-02 
       2.200000e+00       7.180861e-02       7.180380e-02 
       2.200000e+00      -7.180546e-02       7.180380e-02 
       2.400000e+00      -7.180518e-02      -7.181085e-02 
       2.400000e+00       7.180889e-02      -7.181086e-02 
       2.400000e+00       7.180889e-02       7.180321e-02 
       2.400000e+00      -7.180517e-02       7.180321e-02 
       2.400000e+00      -7.180518e-02      -7.181085e-02 
       2.400000e+00       7.180889e-02      -7.181086e-02 
       2.400000e+00       7.180889e-02       7.180321e-02 
       2.400000e+00      -7.180517e-02       7.180321e-02 
       2.600000e+00      -7.180487e-02      -7.181149e-02 
       2.600000e+00       7.180920e-02      -7.181149e-02 
       2.600000e+00       7.180920e-02       7.180258e-02 
       2.600000e+00      -7.180487e-02       7.180258e-02 
       2.600000e+00      -7.180487e-02      -7.181149e-02 
       2.600000e+00       7.180920e-02      -7.181149e-02 
       2.600000e+00       7.180920e-02       7.180258e-02 
       2.600000e+00      -7.180487e-02       7.180258e-02 
       2.800000e+00      -7.180454e-02      -7.181217e-02 
       2.800000e+00       7.180953e-02      -7.181217e-02 
       2.800000e+00       7.180953e-02       7.180190e-02 
       2.800000e+00      -7.180454e-02       7.180190e-02 
       2.800000e+00      -7.180454e-02      -7.181217e-02 
       2.800000e+00       7.180953e-02      -7.181217e-02 
       2.800000e+00       7.180953e-02       7.180190e-02 
       2.800000e+00      -7.180454e-02       7.180190e-02 
       3.000000e+00      -7.180419e-02      -7.181289e-02 
       3.000000e+00       7.180988e-02      -7.181289e-02 
       3.000000e+00       7.180988e-02       7.180118e-02 
       3.000000e+00      -7.180419e-02       7.180118e-02 
       3.000000e+00      -7.180419e-02      -7.181289e-02 
       3.000000e+00       7.180988e-02      -7.181289e-02 
       3.000000e+00       7.180988e-02       7.180118e-02 
       3.000000e+00      -7.180419e-02       7.180118e-02 
       3.200000e+00      -7.180382e-02      -7.181365e-02 
       3.200000e+00       7.181025e-02      -7.181365e-02 
       3.200000e+00       7.181025e-02       7.180042e-02 
       3.200000e+00      -7.180382e-02       7.180042e-02 
       3.200000e+00      -7.180382e-02      -7.181365e-02 
       3.200000e+00       7.181025e-02      -7.181365e-02 
       3.200000e+00       7.181025e-02       7.180042e-02 
       3.200000e+00      -7.180382e-02       7.180042e-02 
       3.400000e+00      -7.180343e-02      -7.181445e-02 
       3.400000e+00       7.181064e-02      -7.181446e-02 
       3.400000e+00       7.181064e-02       7.179961e-02 
       3.400000e+00      -7.180343e-02       7.179961e-02 
       3.400000e+00      -7.180343e-02      -7.181445e-02 
       3.400000e+00       7.181064e-02      -7.181446e-02 
       3.400000e+00       7.181064e-02       7.179961e-02 
       3.400000e+00      -7.180343e-02       7.179961e-02 
       3.600000e+00      -7.180302e-02      -7.181530e-02 
       3.600000e+00       7.181105e-02      -7.181530e-02 
       3.600000e+00       7.181105e-02       7.179877e-02 
       3.600000e+00      -7.180302e-02       7.179877e-02 
       3.600000e+00      -7.180302e-02      -7.181530e-02 
       3.600000e+00       7.181105e-02      -7.181530e-02 
       3.600000e+00       7.181105e-02       7.179877e-02 
       3.600000e+00      -7.180302e-02       7.179877e-02 
       3.800000e+00      -7.180259e-02      -7.181618e-02 
       3.800000e+00       7.181148e-02      -7.181618e-02 
       3.800000e+00       7.181148e-02       7.179788e-02 
       3.800000e+00      -7.180259e-02       7.179789e-02 
       3.800000e+00      -7.180259e-02      -7.181618e-02 
       3.800000e+00       7.181148e-02      -7.181618e-02 
       3.800000e+00       7.181148e-02       7.179788e-02 
       3.800000e+00      -7.180259e-02       7.179789e-02 
       4.000000e+00      -7.180214e-02      -7.181710e-02 
       3.999999e+00       7.181192e-02      -7.181710e-02 
       4.000000e+00       7.181193e-02       7.179696e-02 
       4.000001e+00      -7.180214e-02       7.179696e-02 
       4.000000e+00      -7.180214e-02      -7.181710e-02 
       3.999999e+00       7.181192e-02      -7.181710e-02 
       4.000000e+00       7.181193e-02       7.179696e-02 
       4.000001e+00      -7.180214e-02       7.179696e-02 
       4.200000e+00      -7.180168e-02      -7.181806e-02 
[...]
POINT_DATA       800 
VECTORS Displacements float
       3.35056798e-23      -1.38777878e-17       0.00000000e+00 
       6.16215799e-23       1.38777878e-17       0.00000000e+00 
      -3.35056798e-23       1.38777878e-17       0.00000000e+00 
      -6.16215799e-23      -1.38777878e-17       0.00000000e+00 
      -1.04857478e-08       1.37990089e-08      -2.83863354e-08 
      -3.03500134e-08       1.37990075e-08      -2.85397154e-08 
       1.04009668e-08       1.39523932e-08      -2.85397212e-08 
       3.02652325e-08       1.39523945e-08      -2.83863412e-08 
      -1.04857478e-08       1.37990089e-08      -2.83863354e-08 
      -3.03500134e-08       1.37990075e-08      -2.85397154e-08 
       1.04009668e-08       1.39523932e-08      -2.85397212e-08 
       3.02652325e-08       1.39523945e-08      -2.83863412e-08 
      -2.07833677e-08       5.49974069e-08      -1.12997221e-07 
      -6.01327471e-08       5.49974016e-08      -1.13303975e-07 
       2.06136189e-08       5.53041783e-08      -1.13303998e-07 
       5.99629983e-08       5.53041837e-08      -1.12997243e-07 
      -2.07833677e-08       5.49974069e-08      -1.12997221e-07 
      -6.01327471e-08       5.49974016e-08      -1.13303975e-07 
       2.06136189e-08       5.53041783e-08      -1.13303998e-07 
       5.99629983e-08       5.53041837e-08      -1.12997243e-07 
      -3.08928580e-08       1.23067179e-07      -2.52780399e-07 
      -8.93481992e-08       1.23067167e-07      -2.53240523e-07 
       3.06379578e-08       1.23527340e-07      -2.53240573e-07 
       8.90932988e-08       1.23527352e-07      -2.52780449e-07 
      -3.08928580e-08       1.23067179e-07      -2.52780399e-07 
      -8.93481992e-08       1.23067167e-07      -2.53240523e-07 
       3.06379578e-08       1.23527340e-07      -2.53240573e-07 
       8.90932988e-08       1.23527352e-07      -2.52780449e-07 
      -4.08142171e-08       2.17480310e-07      -4.46683612e-07 
      -1.17996368e-07       2.17480289e-07      -4.47297101e-07 
       4.04739855e-08       2.18093863e-07      -4.47297189e-07 
       1.17656136e-07       2.18093884e-07      -4.46683700e-07 
      -4.08142171e-08       2.17480310e-07      -4.46683612e-07 
      -1.17996368e-07       2.17480289e-07      -4.47297101e-07 
       4.04739855e-08       2.18093863e-07      -4.47297189e-07 
       1.17656136e-07       2.18093884e-07      -4.46683700e-07 
      -5.05474430e-08       3.37708785e-07      -6.93654605e-07 
      -1.46077251e-07       3.37708753e-07      -6.94421454e-07 
       5.01217037e-08       3.38475732e-07      -6.94421588e-07 
       1.45651512e-07       3.38475764e-07      -6.93654739e-07 
      -5.05474430e-08       3.37708785e-07      -6.93654605e-07 
      -1.46077251e-07       3.37708753e-07      -6.94421454e-07 
       5.01217037e-08       3.38475732e-07      -6.94421588e-07 
       1.45651512e-07       3.38475764e-07      -6.93654739e-07 
      -6.00925341e-08       4.83224588e-07      -9.92641119e-07 
      -1.73590848e-07       4.83224543e-07      -9.93561324e-07 
       5.95811140e-08       4.84144932e-07      -9.93561513e-07 
       1.73079428e-07       4.84144977e-07      -9.92641308e-07 
      -6.00925341e-08       4.83224588e-07      -9.92641119e-07 
      -1.73590848e-07       4.83224543e-07      -9.93561324e-07 
       5.95811140e-08       4.84144932e-07      -9.93561513e-07 
       1.73079428e-07       4.84144977e-07      -9.92641308e-07 
      -6.94494886e-08       6.53499705e-07      -1.34259090e-06 
      -2.00537156e-07       6.53499645e-07      -1.34366446e-06 
       6.88522179e-08       6.54573448e-07      -1.34366471e-06 
       1.99939886e-07       6.54573508e-07      -1.34259115e-06 
      -6.94494886e-08       6.53499705e-07      -1.34259090e-06 
      -2.00537156e-07       6.53499645e-07      -1.34366446e-06 
       6.88522179e-08       6.54573448e-07      -1.34366471e-06 
       1.99939886e-07       6.54573508e-07      -1.34259115e-06 
      -7.86183045e-08       8.48006120e-07      -1.74245168e-06 
      -2.26916173e-07       8.48006043e-07      -1.74367859e-06 
       7.79350182e-08       8.49233264e-07      -1.74367891e-06 
       2.26232887e-07       8.49233340e-07      -1.74245201e-06 
      -7.86183045e-08       8.48006120e-07      -1.74245168e-06 
      -2.26916173e-07       8.48006043e-07      -1.74367859e-06 
       7.79350182e-08       8.49233264e-07      -1.74367891e-06 
       2.26232887e-07       8.49233340e-07      -1.74245201e-06 
      -8.75989807e-08       1.06621582e-06      -2.19117122e-06 
      -2.52727899e-07       1.06621572e-06      -2.19255147e-06 
       8.68295156e-08       1.06759636e-06      -2.19255187e-06 
       2.51958434e-07       1.06759646e-06      -2.19117162e-06 
      -8.75989807e-08       1.06621582e-06      -2.19117122e-06 
      -2.52727899e-07       1.06621572e-06      -2.19255147e-06 
       8.68295156e-08       1.06759636e-06      -2.19255187e-06 
       2.51958434e-07       1.06759646e-06      -2.19117162e-06 
      -9.63915148e-08       1.30760078e-06      -2.68769725e-06 
      -2.77972330e-07       1.30760067e-06      -2.68923085e-06 
       9.55357127e-08       1.30913473e-06      -2.68923133e-06 
       2.77116528e-07       1.30913485e-06      -2.68769774e-06 
      -9.63915145e-08       1.30760078e-06      -2.68769725e-06 
      -2.77972330e-07       1.30760067e-06      -2.68923085e-06 
       9.55357127e-08       1.30913473e-06      -2.68923133e-06 
       2.77116528e-07       1.30913485e-06      -2.68769774e-06 
      -1.04989270e-07       1.57165007e-06      -3.23100192e-06 
      -3.02662456e-07       1.57164993e-06      -3.23267280e-06 
       1.04076665e-07       1.57332137e-06      -3.23267338e-06 
       3.01749851e-07       1.57332151e-06      -3.23100250e-06 
      -1.04989270e-07       1.57165007e-06      -3.23100192e-06 
      -3.02662456e-07       1.57164993e-06      -3.23267280e-06 
       1.04076665e-07       1.57332137e-06      -3.23267338e-06 
       3.01749851e-07       1.57332151e-06      -3.23100250e-06 
      -1.13416649e-07       1.85787368e-06      -3.82011109e-06 
      -3.26842923e-07       1.85787352e-06      -3.82191926e-06 
       1.12446823e-07       1.85968234e-06      -3.82191993e-06 
       3.25873097e-07       1.85968250e-06      -3.82011176e-06 
      -1.13416649e-07       1.85787368e-06      -3.82011109e-06 
      -3.26842923e-07       1.85787352e-06      -3.82191926e-06 
       1.12446823e-07       1.85968234e-06      -3.82191993e-06 
       3.25873097e-07       1.85968250e-06      -3.82011176e-06 
      -1.21673647e-07       2.16579912e-06      -4.45407714e-06 
      -3.50513726e-07       2.16579894e-06      -4.45602260e-06 
       1.20646192e-07       2.16774515e-06      -4.45602337e-06 
       3.49486272e-07       2.16774533e-06      -4.45407792e-06 
      -1.21673647e-07       2.16579912e-06      -4.45407714e-06 
      -3.50513726e-07       2.16579894e-06      -4.45602260e-06 
       1.20646192e-07       2.16774515e-06      -4.45602337e-06 
       3.49486272e-07       2.16774533e-06      -4.45407792e-06 
      -1.29760260e-07       2.49495392e-06      -5.13195247e-06 
      -3.73674863e-07       2.49495371e-06      -5.13403520e-06 
       1.28674777e-07       2.49703730e-06      -5.13403608e-06 
       3.72589379e-07       2.49703750e-06      -5.13195335e-06 
      -1.29760260e-07       2.49495392e-06      -5.13195247e-06 
      -3.73674863e-07       2.49495371e-06      -5.13403520e-06 
       1.28674777e-07       2.49703730e-06      -5.13403608e-06 
       3.72589379e-07       2.49703750e-06      -5.13195335e-06 
      -1.37676485e-07       2.84486556e-06      -5.85278946e-06 
      -3.96326327e-07       2.84486533e-06      -5.85500947e-06 
       1.36532579e-07       2.84708630e-06      -5.85501046e-06 
       3.95182422e-07       2.84708654e-06      -5.85279045e-06 
      -1.37676485e-07       2.84486556e-06      -5.85278946e-06 
      -3.96326327e-07       2.84486533e-06      -5.85500947e-06 
       1.36532579e-07       2.84708630e-06      -5.85501046e-06 
       3.95182422e-07       2.84708654e-06      -5.85279045e-06 
      -1.45422316e-07       3.21506157e-06      -6.61564049e-06 
      -4.18468116e-07       3.21506131e-06      -6.61799778e-06 
       1.44219606e-07       3.21741967e-06      -6.61799889e-06 
       4.17265406e-07       3.21741993e-06      -6.61564159e-06 
      -1.45422316e-07       3.21506157e-06      -6.61564049e-06 
      -4.18468116e-07       3.21506131e-06      -6.61799778e-06 
       1.44219606e-07       3.21741967e-06      -6.61799889e-06 
       4.17265406e-07       3.21741993e-06      -6.61564159e-06 
      -1.52997748e-07       3.60506944e-06      -7.41955796e-06 
      -4.40100223e-07       3.60506916e-06      -7.42205253e-06 
       1.51735862e-07       3.60756491e-06      -7.42205375e-06 
       4.38838337e-07       3.60756519e-06      -7.41955918e-06 
      -1.52997748e-07       3.60506944e-06      -7.41955796e-06 
      -4.40100223e-07       3.60506916e-06      -7.42205253e-06 
       1.51735862e-07       3.60756491e-06      -7.42205375e-06 
       4.38838337e-07       3.60756519e-06      -7.41955918e-06 
      -1.60402779e-07       4.01441669e-06      -8.26359425e-06 
      -4.61222646e-07       4.01441638e-06      -8.26622610e-06 
       1.59081349e-07       4.01704952e-06      -8.26622744e-06 
       4.59901216e-07       4.01704984e-06      -8.26359559e-06 
      -1.60402779e-07       4.01441669e-06      -8.26359425e-06 
      -4.61222646e-07       4.01441638e-06      -8.26622610e-06 
       1.59081349e-07       4.01704952e-06      -8.26622744e-06 
       4.59901216e-07       4.01704984e-06      -8.26359559e-06 
      -1.67637403e-07       4.44263083e-06      -9.14680176e-06 
      -4.81835380e-07       4.44263048e-06      -9.14957087e-06 
       1.66256073e-07       4.44540102e-06      -9.14957234e-06 
       4.80454050e-07       4.44540136e-06      -9.14680322e-06 
      -1.67637403e-07       4.44263083e-06      -9.14680176e-06 
      -4.81835380e-07       4.44263048e-06      -9.14957087e-06 
       1.66256073e-07       4.44540102e-06      -9.14957234e-06 
       4.80454050e-07       4.44540136e-06      -9.14680322e-06 
      -1.74701616e-07       4.88923936e-06      -1.00682329e-05 
      -5.01938421e-07       4.88923898e-06      -1.00711392e-05 
       1.73260038e-07       4.89214691e-06      -1.00711408e-05 
       5.00496842e-07       4.89214728e-06      -1.00682344e-05 
      -1.74701615e-07       4.88923936e-06      -1.00682329e-05 
      -5.01938420e-07       4.88923898e-06      -1.00711392e-05 
       1.73260038e-07       4.89214691e-06      -1.00711408e-05 
       5.00496843e-07       4.89214728e-06      -1.00682344e-05 
      -1.81593957e-07       5.35378717e-06      -1.10269657e-05 
      -5.21550388e-07       5.35378677e-06      -1.10299932e-05 
       1.80112681e-07       5.35681600e-06      -1.10299950e-05 
       5.20069112e-07       5.35681640e-06      -1.10269674e-05 
      -1.81593957e-07       5.35378717e-06      -1.10269657e-05 
      -5.21550388e-07       5.35378677e-06      -1.10299932e-05 
       1.80112681e-07       5.35681600e-06      -1.10299950e-05 
       5.20069112e-07       5.35681640e-06      -1.10269674e-05 
      -1.88333980e-07       5.83584020e-06      -1.20221328e-05 
      -5.40710743e-07       5.83583977e-06      -1.20252815e-05 
       1.86812508e-07       5.83899031e-06      -1.20252834e-05 
       5.39189270e-07       5.83899074e-06      -1.20221346e-05 
      -1.88333980e-07       5.83584020e-06      -1.20221328e-05 
      -5.40710743e-07       5.83583977e-06      -1.20252815e-05 
       1.86812508e-07       5.83899031e-06      -1.20252834e-05 
       5.39189270e-07       5.83899074e-06      -1.20221346e-05 
      -1.94921679e-07       6.33498164e-06      -1.30528925e-05 
      -5.59419479e-07       6.33498118e-06      -1.30561624e-05 
       1.93359523e-07       6.33825304e-06      -1.30561644e-05 
       5.57857323e-07       6.33825350e-06      -1.30528944e-05 
      -1.94921679e-07       6.33498164e-06      -1.30528925e-05 
      -5.59419479e-07       6.33498118e-06      -1.30561624e-05 
       1.93359523e-07       6.33825304e-06      -1.30561644e-05 
       5.57857323e-07       6.33825350e-06      -1.30528944e-05 
      -2.01357049e-07       6.85079470e-06      -1.41184030e-05 
      -5.77676591e-07       6.85079421e-06      -1.41217941e-05 
       1.99753731e-07       6.85418737e-06      -1.41217962e-05 
       5.76073274e-07       6.85418786e-06      -1.41184051e-05 
      -2.01357049e-07       6.85079470e-06      -1.41184030e-05 
      -5.77676591e-07       6.85079421e-06      -1.41217941e-05 
       1.99753731e-07       6.85418737e-06      -1.41217962e-05 
       5.76073274e-07       6.85418786e-06      -1.41184051e-05 
      -2.07640084e-07       7.38286256e-06      -1.52178226e-05 
      -5.95482074e-07       7.38286204e-06      -1.52213349e-05 
       2.05995139e-07       7.38637651e-06      -1.52213371e-05 
       5.93837130e-07       7.38637704e-06      -1.52178248e-05 
      -2.07640084e-07       7.38286256e-06      -1.52178226e-05 
      -5.95482074e-07       7.38286204e-06      -1.52213349e-05 
       2.05995139e-07       7.38637651e-06      -1.52213371e-05 
       5.93837130e-07       7.38637704e-06      -1.52178248e-05 
      -2.13770778e-07       7.93076842e-06      -1.63503095e-05 
      -6.12835922e-07       7.93076787e-06      -1.63539430e-05 
       2.12083754e-07       7.93440365e-06      -1.63539454e-05 
       6.11148898e-07       7.93440421e-06      -1.63503119e-05 
      -2.13770778e-07       7.93076842e-06      -1.63503095e-05 
      -6.12835922e-07       7.93076787e-06      -1.63539430e-05 
       2.12083754e-07       7.93440365e-06      -1.63539454e-05 
       6.11148898e-07       7.93440421e-06      -1.63503119e-05 
      -2.19749125e-07       8.49409548e-06      -1.75150220e-05 
      -6.29738127e-07       8.49409490e-06      -1.75187767e-05 
       2.18019579e-07       8.49785200e-06      -1.75187792e-05 
       6.28008582e-07       8.49785258e-06      -1.75150245e-05 
      -2.19749125e-07       8.49409548e-06      -1.75150220e-05 
      -6.29738127e-07       8.49409490e-06      -1.75187767e-05 
       2.18019579e-07       8.49785200e-06      -1.75187792e-05 
       6.28008582e-07       8.49785258e-06      -1.75150245e-05 
      -2.25575118e-07       9.07242694e-06      -1.87111184e-05 
      -6.46188685e-07       9.07242632e-06      -1.87149943e-05 
       2.23802624e-07       9.07630473e-06      -1.87149969e-05 
       6.44416191e-07       9.07630535e-06      -1.87111211e-05 
      -2.25575118e-07       9.07242694e-06      -1.87111184e-05 
      -6.46188685e-07       9.07242632e-06      -1.87149943e-05 
       2.23802624e-07       9.07630473e-06      -1.87149969e-05 
       6.44416191e-07       9.07630535e-06      -1.87111211e-05 
      -2.31248754e-07       9.66534598e-06      -1.99377569e-05 
      -6.62187590e-07       9.66534534e-06      -1.99417540e-05 
       2.29432890e-07       9.66934506e-06      -1.99417567e-05 
       6.60371726e-07       9.66934570e-06      -1.99377597e-05 
      -2.31248754e-07       9.66534598e-06      -1.99377569e-05 
      -6.62187590e-07       9.66534534e-06      -1.99417540e-05 
       2.29432890e-07       9.66934506e-06      -1.99417567e-05 
       6.60371726e-07       9.66934570e-06      -1.99377597e-05 
      -2.36770026e-07       1.02724358e-05      -2.11940958e-05 
      -6.77734837e-07       1.02724351e-05      -2.11982140e-05 
       2.34910384e-07       1.02765562e-05      -2.11982169e-05 
       6.75875196e-07       1.02765568e-05      -2.11940987e-05 
      -2.36770027e-07       1.02724358e-05      -2.11940958e-05 
      -6.77734837e-07       1.02724351e-05      -2.11982140e-05 
       2.34910385e-07       1.02765562e-05      -2.11982169e-05 
       6.75875196e-07       1.02765568e-05      -2.11940987e-05 
      -2.42140914e-07       1.08932971e-05      -2.24793191e-05 
      -6.92852479e-07       1.08932963e-05      -2.24835424e-05 
       2.40251159e-07       1.08975226e-05      -2.24835455e-05 
       6.90962726e-07       1.08975233e-05      -2.24793222e-05 
      -2.42140914e-07       1.08932971e-05      -2.24793191e-05 
      -6.92852479e-07       1.08932963e-05      -2.24835424e-05 
       2.40251159e-07       1.08975226e-05      -2.24835455e-05 
       6.90962726e-07       1.08975233e-05      -2.24793222e-05 
      -2.47377444e-07       1.15275511e-05      -2.37926651e-05 
      -7.07576215e-07       1.15275504e-05      -2.37969935e-05 
       2.45457092e-07       1.15318818e-05      -2.37969966e-05 
       7.05655864e-07       1.15318825e-05      -2.37926683e-05 
      -2.47377444e-07       1.15275511e-05      -2.37926651e-05 
      -7.07576215e-07       1.15275504e-05      -2.37969935e-05 
       2.45457092e-07       1.15318818e-05      -2.37969966e-05 
       7.05655864e-07       1.15318825e-05      -2.37926683e-05 
      -2.52479610e-07       1.21748365e-05      -2.51333974e-05 
      -7.21906038e-07       1.21748357e-05      -2.51378308e-05 
       2.50528190e-07       1.21792723e-05      -2.51378341e-05 
       7.19954618e-07       1.21792731e-05      -2.51334007e-05 
      -2.52479610e-07       1.21748365e-05      -2.51333974e-05 
      -7.21906038e-07       1.21748357e-05      -2.51378308e-05 
       2.50528190e-07       1.21792723e-05      -2.51378341e-05 
       7.19954618e-07       1.21792731e-05      -2.51334007e-05 
      -2.57447407e-07       1.28347918e-05      -2.65007796e-05 
      -7.35841942e-07       1.28347910e-05      -2.65053181e-05 
       2.55464458e-07       1.28393328e-05      -2.65053216e-05 
       7.33858992e-07       1.28393336e-05      -2.65007830e-05 
      -2.57447407e-07       1.28347918e-05      -2.65007796e-05 
      -7.35841942e-07       1.28347910e-05      -2.65053181e-05 
       2.55464458e-07       1.28393328e-05      -2.65053216e-05 
       7.33858992e-07       1.28393336e-05      -2.65007830e-05 
      -2.62280829e-07       1.35070555e-05      -2.78940755e-05 
      -7.49383920e-07       1.35070547e-05      -2.78987191e-05 
       2.60265902e-07       1.35117017e-05      -2.78987226e-05 
       7.47368994e-07       1.35117026e-05      -2.78940790e-05 
      -2.62280829e-07       1.35070555e-05      -2.78940755e-05 
      -7.49383920e-07       1.35070547e-05      -2.78987191e-05 
       2.60265902e-07       1.35117017e-05      -2.78987226e-05 
       7.47368994e-07       1.35117026e-05      -2.78940790e-05 
      -2.66979868e-07       1.41912663e-05      -2.93125486e-05 
      -7.62531967e-07       1.41912654e-05      -2.93172973e-05 
       2.64932530e-07       1.41960176e-05      -2.93173010e-05 
       7.60484630e-07       1.41960185e-05      -2.93125523e-05 
      -2.66979868e-07       1.41912663e-05      -2.93125486e-05 
      -7.62531967e-07       1.41912654e-05      -2.93172973e-05 
       2.64932530e-07       1.41960176e-05      -2.93173010e-05 
       7.60484630e-07       1.41960185e-05      -2.93125523e-05 
      -2.71544518e-07       1.48870626e-05      -3.07554627e-05 
      -7.75286076e-07       1.48870617e-05      -3.07603164e-05 
       2.69464349e-07       1.48919191e-05      -3.07603202e-05 
       7.73205906e-07       1.48919200e-05      -3.07554665e-05 
      -2.71544518e-07       1.48870626e-05      -3.07554627e-05 
      -7.75286076e-07       1.48870617e-05      -3.07603164e-05 
       2.69464349e-07       1.48919191e-05      -3.07603202e-05 
       7.73205906e-07       1.48919200e-05      -3.07554665e-05 
      -2.75974772e-07       1.55940829e-05      -3.22220813e-05 
      -7.87646239e-07       1.55940820e-05      -3.22270401e-05 
       2.73861365e-07       1.55990446e-05      -3.22270440e-05 
       7.85532831e-07       1.55990455e-05      -3.22220852e-05 
      -2.75974772e-07       1.55940829e-05      -3.22220813e-05 
      -7.87646239e-07       1.55940820e-05      -3.22270401e-05 