# vtk DataFile Version 2.0
./output/onsasExample_BladeCantileverBeamPitch_windVel3DDynamic 3D/onsasExample_BladeCantileverBeamPitch_windVel3DDynamic 3D_0129.vtk
ASCII
DATASET UNSTRUCTURED_GRID

POINTS 800 float
      -6.151337e-24      -7.180703e-02      -7.180703e-02 
      -2.137425e-24       7.180703e-02      -7.180703e-02 
       6.151337e-24       7.180703e-02       7.180703e-02 
       2.137425e-24      -7.180703e-02       7.180703e-02 
       2.000000e-01      -7.180702e-02      -7.180706e-02 
       2.000000e-01       7.180705e-02      -7.180706e-02 
       2.000000e-01       7.180705e-02       7.180700e-02 
       2.000000e-01      -7.180702e-02       7.180700e-02 
       2.000000e-01      -7.180702e-02      -7.180706e-02 
       2.000000e-01       7.180705e-02      -7.180706e-02 
       2.000000e-01       7.180705e-02       7.180700e-02 
       2.000000e-01      -7.180702e-02       7.180700e-02 
       4.000000e-01      -7.180698e-02      -7.180715e-02 
       3.999999e-01       7.180709e-02      -7.180715e-02 
       4.000000e-01       7.180709e-02       7.180692e-02 
       4.000001e-01      -7.180698e-02       7.180692e-02 
       4.000000e-01      -7.180698e-02      -7.180715e-02 
       3.999999e-01       7.180709e-02      -7.180715e-02 
       4.000000e-01       7.180709e-02       7.180692e-02 
       4.000001e-01      -7.180698e-02       7.180692e-02 
       6.000000e-01      -7.180691e-02      -7.180729e-02 
       5.999999e-01       7.180715e-02      -7.180729e-02 
       6.000000e-01       7.180715e-02       7.180677e-02 
       6.000001e-01      -7.180691e-02       7.180677e-02 
       6.000000e-01      -7.180691e-02      -7.180729e-02 
       5.999999e-01       7.180715e-02      -7.180729e-02 
       6.000000e-01       7.180715e-02       7.180677e-02 
       6.000001e-01      -7.180691e-02       7.180677e-02 
       8.000000e-01      -7.180682e-02      -7.180749e-02 
       7.999999e-01       7.180725e-02      -7.180749e-02 
       8.000000e-01       7.180725e-02       7.180658e-02 
       8.000001e-01      -7.180682e-02       7.180658e-02 
       8.000000e-01      -7.180682e-02      -7.180749e-02 
       7.999999e-01       7.180725e-02      -7.180749e-02 
       8.000000e-01       7.180725e-02       7.180658e-02 
       8.000001e-01      -7.180682e-02       7.180658e-02 
       9.999999e-01      -7.180670e-02      -7.180774e-02 
       9.999999e-01       7.180737e-02      -7.180774e-02 
       1.000000e+00       7.180737e-02       7.180632e-02 
       1.000000e+00      -7.180670e-02       7.180632e-02 
       9.999999e-01      -7.180670e-02      -7.180774e-02 
       9.999999e-01       7.180737e-02      -7.180774e-02 
       1.000000e+00       7.180737e-02       7.180632e-02 
       1.000000e+00      -7.180670e-02       7.180632e-02 
       1.200000e+00      -7.180656e-02      -7.180805e-02 
       1.200000e+00       7.180751e-02      -7.180805e-02 
       1.200000e+00       7.180751e-02       7.180602e-02 
       1.200000e+00      -7.180656e-02       7.180602e-02 
       1.200000e+00      -7.180656e-02      -7.180805e-02 
       1.200000e+00       7.180751e-02      -7.180805e-02 
       1.200000e+00       7.180751e-02       7.180602e-02 
       1.200000e+00      -7.180656e-02       7.180602e-02 
       1.400000e+00      -7.180639e-02      -7.180841e-02 
       1.400000e+00       7.180768e-02      -7.180841e-02 
       1.400000e+00       7.180768e-02       7.180566e-02 
       1.400000e+00      -7.180639e-02       7.180566e-02 
       1.400000e+00      -7.180639e-02      -7.180841e-02 
       1.400000e+00       7.180768e-02      -7.180841e-02 
       1.400000e+00       7.180768e-02       7.180566e-02 
       1.400000e+00      -7.180639e-02       7.180566e-02 
       1.600000e+00      -7.180620e-02      -7.180882e-02 
       1.600000e+00       7.180787e-02      -7.180882e-02 
       1.600000e+00       7.180787e-02       7.180525e-02 
       1.600000e+00      -7.180620e-02       7.180525e-02 
       1.600000e+00      -7.180620e-02      -7.180882e-02 
       1.600000e+00       7.180787e-02      -7.180882e-02 
       1.600000e+00       7.180787e-02       7.180525e-02 
       1.600000e+00      -7.180620e-02       7.180525e-02 
       1.800000e+00      -7.180598e-02      -7.180928e-02 
       1.800000e+00       7.180808e-02      -7.180928e-02 
       1.800000e+00       7.180808e-02       7.180479e-02 
       1.800000e+00      -7.180598e-02       7.180479e-02 
       1.800000e+00      -7.180598e-02      -7.180928e-02 
       1.800000e+00       7.180808e-02      -7.180928e-02 
       1.800000e+00       7.180808e-02       7.180479e-02 
       1.800000e+00      -7.180598e-02       7.180479e-02 
       2.000000e+00      -7.180575e-02      -7.180979e-02 
       2.000000e+00       7.180832e-02      -7.180979e-02 
       2.000000e+00       7.180832e-02       7.180428e-02 
       2.000000e+00      -7.180575e-02       7.180428e-02 
       2.000000e+00      -7.180575e-02      -7.180979e-02 
       2.000000e+00       7.180832e-02      -7.180979e-02 
       2.000000e+00       7.180832e-02       7.180428e-02 
       2.000000e+00      -7.180575e-02       7.180428e-02 
       2.200000e+00      -7.180549e-02      -7.181034e-02 
       2.200000e+00       7.180858e-02      -7.181034e-02 
       2.200000e+00       7.180858e-02       7.180372e-02 
       2.200000e+00      -7.180549e-02       7.180372e-02 
       2.200000e+00      -7.180549e-02      -7.181034e-02 
       2.200000e+00       7.180858e-02      -7.181034e-02 
       2.200000e+00       7.180858e-02       7.180372e-02 
       2.200000e+00      -7.180549e-02       7.180372e-02 
       2.400000e+00      -7.180521e-02      -7.181095e-02 
       2.400000e+00       7.180886e-02      -7.181095e-02 
       2.400000e+00       7.180886e-02       7.180312e-02 
       2.400000e+00      -7.180521e-02       7.180312e-02 
       2.400000e+00      -7.180521e-02      -7.181095e-02 
       2.400000e+00       7.180886e-02      -7.181095e-02 
       2.400000e+00       7.180886e-02       7.180312e-02 
       2.400000e+00      -7.180521e-02       7.180312e-02 
       2.600000e+00      -7.180490e-02      -7.181160e-02 
       2.600000e+00       7.180916e-02      -7.181160e-02 
       2.600000e+00       7.180916e-02       7.180247e-02 
       2.600000e+00      -7.180490e-02       7.180247e-02 
       2.600000e+00      -7.180490e-02      -7.181160e-02 
       2.600000e+00       7.180916e-02      -7.181160e-02 
       2.600000e+00       7.180916e-02       7.180247e-02 
       2.600000e+00      -7.180490e-02       7.180247e-02 
       2.800000e+00      -7.180458e-02      -7.181229e-02 
       2.800000e+00       7.180948e-02      -7.181229e-02 
       2.800000e+00       7.180949e-02       7.180177e-02 
       2.800000e+00      -7.180458e-02       7.180178e-02 
       2.800000e+00      -7.180458e-02      -7.181229e-02 
       2.800000e+00       7.180948e-02      -7.181229e-02 
       2.800000e+00       7.180949e-02       7.180177e-02 
       2.800000e+00      -7.180458e-02       7.180178e-02 
       3.000000e+00      -7.180424e-02      -7.181303e-02 
       3.000000e+00       7.180983e-02      -7.181303e-02 
       3.000000e+00       7.180983e-02       7.180104e-02 
       3.000000e+00      -7.180424e-02       7.180104e-02 
       3.000000e+00      -7.180424e-02      -7.181303e-02 
       3.000000e+00       7.180983e-02      -7.181303e-02 
       3.000000e+00       7.180983e-02       7.180104e-02 
       3.000000e+00      -7.180424e-02       7.180104e-02 
       3.200000e+00      -7.180387e-02      -7.181381e-02 
       3.200000e+00       7.181019e-02      -7.181381e-02 
       3.200000e+00       7.181019e-02       7.180025e-02 
       3.200000e+00      -7.180387e-02       7.180026e-02 
       3.200000e+00      -7.180387e-02      -7.181381e-02 
       3.200000e+00       7.181019e-02      -7.181381e-02 
       3.200000e+00       7.181019e-02       7.180025e-02 
       3.200000e+00      -7.180387e-02       7.180026e-02 
       3.400000e+00      -7.180349e-02      -7.181463e-02 
       3.400000e+00       7.181057e-02      -7.181464e-02 
       3.400000e+00       7.181058e-02       7.179943e-02 
       3.400000e+00      -7.180349e-02       7.179943e-02 
       3.400000e+00      -7.180349e-02      -7.181463e-02 
       3.400000e+00       7.181057e-02      -7.181464e-02 
       3.400000e+00       7.181058e-02       7.179943e-02 
       3.400000e+00      -7.180349e-02       7.179943e-02 
       3.600000e+00      -7.180309e-02      -7.181550e-02 
       3.600000e+00       7.181098e-02      -7.181550e-02 
       3.600000e+00       7.181098e-02       7.179856e-02 
       3.600000e+00      -7.180309e-02       7.179857e-02 
       3.600000e+00      -7.180309e-02      -7.181550e-02 
       3.600000e+00       7.181098e-02      -7.181550e-02 
       3.600000e+00       7.181098e-02       7.179856e-02 
       3.600000e+00      -7.180309e-02       7.179857e-02 
       3.800000e+00      -7.180267e-02      -7.181640e-02 
       3.800000e+00       7.181140e-02      -7.181641e-02 
       3.800000e+00       7.181140e-02       7.179766e-02 
       3.800000e+00      -7.180267e-02       7.179766e-02 
       3.800000e+00      -7.180267e-02      -7.181640e-02 
       3.800000e+00       7.181140e-02      -7.181641e-02 
       3.800000e+00       7.181140e-02       7.179766e-02 
       3.800000e+00      -7.180267e-02       7.179766e-02 
       4.000000e+00      -7.180223e-02      -7.181735e-02 
       3.999999e+00       7.181183e-02      -7.181735e-02 
       4.000000e+00       7.181184e-02       7.179672e-02 
       4.000001e+00      -7.180223e-02       7.179672e-02 
       4.000000e+00      -7.180223e-02      -7.181735e-02 
       3.999999e+00       7.181183e-02      -7.181735e-02 
       4.000000e+00       7.181184e-02       7.179672e-02 
       4.000001e+00      -7.180223e-02       7.179672e-02 
       4.200000e+00      -7.180178e-02      -7.181833e-02 
[...]
POINT_DATA       800 
VECTORS Displacements float
      -6.15133706e-24       0.00000000e+00       0.00000000e+00 
      -2.13742474e-24       0.00000000e+00       0.00000000e+00 
       6.15133706e-24       0.00000000e+00       0.00000000e+00 
       2.13742474e-24       0.00000000e+00       0.00000000e+00 
      -1.11369422e-08       1.35767923e-08      -2.90706351e-08 
      -3.06814263e-08       1.35767910e-08      -2.92230259e-08 
       1.10490923e-08       1.37291875e-08      -2.92230320e-08 
       3.05935764e-08       1.37291888e-08      -2.90706412e-08 
      -1.11369422e-08       1.35767923e-08      -2.90706351e-08 
      -3.06814263e-08       1.35767910e-08      -2.92230259e-08 
       1.10490923e-08       1.37291875e-08      -2.92230320e-08 
       3.05935764e-08       1.37291888e-08      -2.90706412e-08 
      -2.20780643e-08       5.41079018e-08      -1.15719491e-07 
      -6.07882576e-08       5.41078965e-08      -1.16024268e-07 
       2.19021712e-08       5.44126950e-08      -1.16024291e-07 
       6.06123646e-08       5.44127002e-08      -1.15719515e-07 
      -2.20780643e-08       5.41079018e-08      -1.15719491e-07 
      -6.07882576e-08       5.41078965e-08      -1.16024268e-07 
       2.19021712e-08       5.44126950e-08      -1.16024291e-07 
       6.06123646e-08       5.44127002e-08      -1.15719515e-07 
      -3.28233642e-08       1.21065839e-07      -2.58873403e-07 
      -9.03204922e-08       1.21065827e-07      -2.59330560e-07 
       3.25592384e-08       1.21523033e-07      -2.59330612e-07 
       9.00563665e-08       1.21523044e-07      -2.58873456e-07 
      -3.28233642e-08       1.21065839e-07      -2.58873403e-07 
      -9.03204922e-08       1.21065827e-07      -2.59330560e-07 
       3.25592384e-08       1.21523033e-07      -2.59330612e-07 
       9.00563665e-08       1.21523044e-07      -2.58873456e-07 
      -4.33728402e-08       2.13923113e-07      -4.57459205e-07 
      -1.19278128e-07       2.13923093e-07      -4.58068737e-07 
       4.30202959e-08       2.14532711e-07      -4.58068829e-07 
       1.18925584e-07       2.14532731e-07      -4.57459297e-07 
      -4.33728402e-08       2.13923113e-07      -4.57459205e-07 
      -1.19278128e-07       2.13923093e-07      -4.58068737e-07 
       4.30202959e-08       2.14532711e-07      -4.58068829e-07 
       1.18925584e-07       2.14532731e-07      -4.57459297e-07 
      -5.37264906e-08       3.32152235e-07      -7.10403733e-07 
      -1.47661164e-07       3.32152205e-07      -7.11165635e-07 
       5.32853455e-08       3.32914239e-07      -7.11165776e-07 
       1.47220018e-07       3.32914270e-07      -7.10403873e-07 
      -5.37264906e-08       3.32152235e-07      -7.10403733e-07 
      -1.47661164e-07       3.32152205e-07      -7.11165635e-07 
       5.32853455e-08       3.32914239e-07      -7.11165776e-07 
       1.47220018e-07       3.32914270e-07      -7.10403873e-07 
      -6.38843136e-08       4.75225716e-07      -1.01663382e-06 
      -1.75469597e-07       4.75225673e-07      -1.01754809e-06 
       6.33543886e-08       4.76140128e-07      -1.01754829e-06 
       1.74939672e-07       4.76140171e-07      -1.01663402e-06 
      -6.38843136e-08       4.75225716e-07      -1.01663382e-06 
      -1.75469597e-07       4.75225673e-07      -1.01754809e-06 
       6.33543886e-08       4.76140128e-07      -1.01754829e-06 
       1.74939672e-07       4.76140171e-07      -1.01663402e-06 
      -7.38463075e-08       6.42616065e-07      -1.37507630e-06 
      -2.02703426e-07       6.42616007e-07      -1.37614293e-06 
       7.32274275e-08       6.43682887e-07      -1.37614320e-06 
       2.02084547e-07       6.43682945e-07      -1.37507656e-06 
      -7.38463075e-08       6.42616065e-07      -1.37507630e-06 
      -2.02703426e-07       6.42616007e-07      -1.37614293e-06 
       7.32274275e-08       6.43682887e-07      -1.37614320e-06 
       2.02084547e-07       6.43682945e-07      -1.37507656e-06 
      -8.36124701e-08       8.33795793e-07      -1.78465801e-06 
      -2.29362650e-07       8.33795719e-07      -1.78587700e-06 
       8.29044642e-08       8.35015027e-07      -1.78587734e-06 
       2.28654644e-07       8.35015101e-07      -1.78465835e-06 
      -8.36124701e-08       8.33795793e-07      -1.78465801e-06 
      -2.29362650e-07       8.33795719e-07      -1.78587700e-06 
       8.29044642e-08       8.35015027e-07      -1.78587734e-06 
       2.28654644e-07       8.35015101e-07      -1.78465835e-06 
      -9.31827993e-08       1.04823741e-06      -2.24430578e-06 
      -2.55447266e-07       1.04823732e-06      -2.24567713e-06 
       9.23854997e-08       1.04960906e-06      -2.24567755e-06 
       2.54649966e-07       1.04960915e-06      -2.24430620e-06 
      -9.31827993e-08       1.04823741e-06      -2.24430578e-06 
      -2.55447266e-07       1.04823732e-06      -2.24567713e-06 
       9.23854997e-08       1.04960906e-06      -2.24567755e-06 
       2.54649966e-07       1.04960915e-06      -2.24430620e-06 
      -1.02557294e-07       1.28541343e-06      -2.75294645e-06 
      -2.80957272e-07       1.28541332e-06      -2.75447015e-06 
       1.01670536e-07       1.28693749e-06      -2.75447066e-06 
       2.80070514e-07       1.28693760e-06      -2.75294696e-06 
      -1.02557294e-07       1.28541343e-06      -2.75294645e-06 
      -2.80957272e-07       1.28541332e-06      -2.75447015e-06 
       1.01670536e-07       1.28693749e-06      -2.75447066e-06 
       2.80070514e-07       1.28693760e-06      -2.75294696e-06 
      -1.11728204e-07       1.54481340e-06      -3.30953009e-06 
      -3.05904526e-07       1.54481326e-06      -3.31119011e-06 
       1.10781584e-07       1.54647385e-06      -3.31119072e-06 
       3.04957905e-07       1.54647399e-06      -3.30953069e-06 
      -1.11728204e-07       1.54481340e-06      -3.30953009e-06 
      -3.05904526e-07       1.54481326e-06      -3.31119011e-06 
       1.10781584e-07       1.54647385e-06      -3.31119072e-06 
       3.04957905e-07       1.54647399e-06      -3.30953069e-06 
      -1.20719515e-07       1.82594781e-06      -3.91305760e-06 
      -3.30333215e-07       1.82594766e-06      -3.91485395e-06 
       1.19712601e-07       1.82774467e-06      -3.91485466e-06 
       3.29326302e-07       1.82774482e-06      -3.91305831e-06 
      -1.20719515e-07       1.82594781e-06      -3.91305760e-06 
      -3.30333215e-07       1.82594766e-06      -3.91485395e-06 
       1.19712601e-07       1.82774467e-06      -3.91485466e-06 
       3.29326302e-07       1.82774482e-06      -3.91305831e-06 
      -1.29531222e-07       2.12834462e-06      -4.56255611e-06 
      -3.54243337e-07       2.12834445e-06      -4.56448878e-06 
       1.28463591e-07       2.13027787e-06      -4.56448959e-06 
       3.53175707e-07       2.13027805e-06      -4.56255692e-06 
      -1.29531222e-07       2.12834462e-06      -4.56255611e-06 
      -3.54243337e-07       2.12834445e-06      -4.56448878e-06 
       1.28463591e-07       2.13027787e-06      -4.56448959e-06 
       3.53175707e-07       2.13027805e-06      -4.56255692e-06 
      -1.38163320e-07       2.45153178e-06      -5.25705274e-06 
      -3.77634886e-07       2.45153158e-06      -5.25912173e-06 
       1.37034561e-07       2.45360143e-06      -5.25912265e-06 
       3.76506126e-07       2.45360163e-06      -5.25705366e-06 
      -1.38163320e-07       2.45153178e-06      -5.25705274e-06 
      -3.77634886e-07       2.45153158e-06      -5.25912173e-06 
       1.37034561e-07       2.45360143e-06      -5.25912265e-06 
       3.76506126e-07       2.45360163e-06      -5.25705366e-06 
      -1.46615806e-07       2.79503723e-06      -5.99557461e-06 
      -4.00507857e-07       2.79503701e-06      -5.99777992e-06 
       1.45425513e-07       2.79724328e-06      -5.99778095e-06 
       3.99317564e-07       2.79724351e-06      -5.99557565e-06 
      -1.46615806e-07       2.79503723e-06      -5.99557461e-06 
      -4.00507857e-07       2.79503701e-06      -5.99777992e-06 
       1.45425513e-07       2.79724328e-06      -5.99778095e-06 
       3.99317564e-07       2.79724351e-06      -5.99557565e-06 
      -1.54888675e-07       3.15838893e-06      -6.77714884e-06 
      -4.22862247e-07       3.15838868e-06      -6.77949047e-06 
       1.53636452e-07       3.16073138e-06      -6.77949162e-06 
       4.21610023e-07       3.16073163e-06      -6.77715000e-06 
      -1.54888675e-07       3.15838893e-06      -6.77714884e-06 
      -4.22862247e-07       3.15838868e-06      -6.77949047e-06 
       1.53636452e-07       3.16073138e-06      -6.77949162e-06 
       4.21610023e-07       3.16073163e-06      -6.77715000e-06 
      -1.62981922e-07       3.54111484e-06      -7.60080257e-06 
      -4.44698050e-07       3.54111456e-06      -7.60328050e-06 
       1.61667383e-07       3.54359369e-06      -7.60328178e-06 
       4.43383512e-07       3.54359396e-06      -7.60080385e-06 
      -1.62981922e-07       3.54111484e-06      -7.60080257e-06 
      -4.44698050e-07       3.54111456e-06      -7.60328050e-06 
       1.61667383e-07       3.54359369e-06      -7.60328178e-06 
       4.43383512e-07       3.54359396e-06      -7.60080385e-06 
      -1.70895543e-07       3.94274289e-06      -8.46556290e-06 
      -4.66015263e-07       3.94274258e-06      -8.46817715e-06 
       1.69518310e-07       3.94535814e-06      -8.46817856e-06 
       4.64638031e-07       3.94535844e-06      -8.46556430e-06 
      -1.70895543e-07       3.94274289e-06      -8.46556290e-06 
      -4.66015263e-07       3.94274258e-06      -8.46817715e-06 
       1.69518310e-07       3.94535814e-06      -8.46817856e-06 
       4.64638031e-07       3.94535844e-06      -8.46556430e-06 
      -1.78629532e-07       4.36280104e-06      -9.37045696e-06 
      -4.86813880e-07       4.36280071e-06      -9.37320753e-06 
       1.77189239e-07       4.36555270e-06      -9.37320906e-06 
       4.85373588e-07       4.36555303e-06      -9.37045850e-06 
      -1.78629532e-07       4.36280104e-06      -9.37045696e-06 
      -4.86813880e-07       4.36280071e-06      -9.37320753e-06 
       1.77189239e-07       4.36555270e-06      -9.37320906e-06 
       4.85373588e-07       4.36555303e-06      -9.37045850e-06 
      -1.86183887e-07       4.80081724e-06      -1.03145119e-05 
      -5.07093898e-07       4.80081688e-06      -1.03173988e-05 
       1.84680173e-07       4.80370530e-06      -1.03174004e-05 
       5.05590184e-07       4.80370566e-06      -1.03145136e-05 
      -1.86183887e-07       4.80081724e-06      -1.03145119e-05 
      -5.07093898e-07       4.80081688e-06      -1.03173988e-05 
       1.84680173e-07       4.80370530e-06      -1.03174004e-05 
       5.05590184e-07       4.80370566e-06      -1.03145136e-05 
      -1.93555939e-07       5.25633666e-06      -1.12967790e-05 
      -5.26872546e-07       5.25633627e-06      -1.12997862e-05 
       1.92009638e-07       5.25934508e-06      -1.12997880e-05 
       5.25326244e-07       5.25934547e-06      -1.12967808e-05 
      -1.93555939e-07       5.25633666e-06      -1.12967790e-05 
      -5.26872546e-07       5.25633627e-06      -1.12997862e-05 
       1.92009638e-07       5.25934508e-06      -1.12997880e-05 
       5.25326244e-07       5.25934547e-06      -1.12967808e-05 
      -2.00765782e-07       5.72892571e-06      -1.23163632e-05 
      -5.46190190e-07       5.72892529e-06      -1.23194906e-05 
       1.99176375e-07       5.73205450e-06      -1.23194925e-05 
       5.44600783e-07       5.73205492e-06      -1.23163651e-05 
      -2.00765782e-07       5.72892571e-06      -1.23163632e-05 
      -5.46190190e-07       5.72892529e-06      -1.23194906e-05 
       1.99176375e-07       5.73205450e-06      -1.23194925e-05 
       5.44600783e-07       5.73205492e-06      -1.23163651e-05 
      -2.07813407e-07       6.21816829e-06      -1.33723957e-05 
      -5.65046820e-07       6.21816784e-06      -1.33756434e-05 
       2.06180395e-07       6.22141744e-06      -1.33756455e-05 
       5.63413808e-07       6.22141789e-06      -1.33723978e-05 
      -2.07813407e-07       6.21816829e-06      -1.33723957e-05 
      -5.65046820e-07       6.21816784e-06      -1.33756434e-05 
       2.06180395e-07       6.22141744e-06      -1.33756455e-05 
       5.63413808e-07       6.22141789e-06      -1.33723978e-05 
      -2.14698811e-07       6.72364828e-06      -1.44640081e-05 
      -5.83442434e-07       6.72364780e-06      -1.44673760e-05 
       2.13021700e-07       6.72701780e-06      -1.44673782e-05 
       5.81765323e-07       6.72701827e-06      -1.44640103e-05 
      -2.14698811e-07       6.72364828e-06      -1.44640081e-05 
      -5.83442434e-07       6.72364780e-06      -1.44673760e-05 
       2.13021700e-07       6.72701780e-06      -1.44673782e-05 
       5.81765323e-07       6.72701827e-06      -1.44640103e-05 
      -2.21421986e-07       7.24494957e-06      -1.55903316e-05 
      -6.01377024e-07       7.24494907e-06      -1.55938198e-05 
       2.19700297e-07       7.24843946e-06      -1.55938221e-05 
       5.99655334e-07       7.24843996e-06      -1.55903339e-05 
      -2.21421986e-07       7.24494957e-06      -1.55903316e-05 
      -6.01377024e-07       7.24494907e-06      -1.55938198e-05 
       2.19700297e-07       7.24843946e-06      -1.55938221e-05 
       5.99655334e-07       7.24843996e-06      -1.55903339e-05 
      -2.27982926e-07       7.78165607e-06      -1.67504976e-05 
      -6.18850582e-07       7.78165554e-06      -1.67541061e-05 
       2.26216192e-07       7.78526632e-06      -1.67541086e-05 
       6.17083849e-07       7.78526685e-06      -1.67505001e-05 
      -2.27982926e-07       7.78165607e-06      -1.67504976e-05 
      -6.18850582e-07       7.78165554e-06      -1.67541061e-05 
       2.26216192e-07       7.78526632e-06      -1.67541086e-05 
       6.17083849e-07       7.78526685e-06      -1.67505001e-05 
      -2.34381626e-07       8.33335165e-06      -1.79436375e-05 
      -6.35863106e-07       8.33335109e-06      -1.79473663e-05 
       2.32569392e-07       8.33708227e-06      -1.79473689e-05 
       6.34050872e-07       8.33708283e-06      -1.79436401e-05 
      -2.34381626e-07       8.33335165e-06      -1.79436375e-05 
      -6.35863106e-07       8.33335109e-06      -1.79473663e-05 
       2.32569392e-07       8.33708227e-06      -1.79473689e-05 
       6.34050872e-07       8.33708283e-06      -1.79436401e-05 
      -2.40618077e-07       8.89962022e-06      -1.91688828e-05 
      -6.52414586e-07       8.89961963e-06      -1.91727318e-05 
       2.38759903e-07       8.90347120e-06      -1.91727345e-05 
       6.50556412e-07       8.90347179e-06      -1.91688855e-05 
      -2.40618077e-07       8.89962022e-06      -1.91688828e-05 
      -6.52414586e-07       8.89961963e-06      -1.91727318e-05 
       2.38759903e-07       8.90347120e-06      -1.91727345e-05 
       6.50556412e-07       8.90347179e-06      -1.91688855e-05 
      -2.46692278e-07       9.48004565e-06      -2.04253647e-05 
      -6.68505019e-07       9.48004503e-06      -2.04293340e-05 
       2.44787731e-07       9.48401700e-06      -2.04293369e-05 
       6.66600472e-07       9.48401762e-06      -2.04253676e-05 
      -2.46692278e-07       9.48004565e-06      -2.04253647e-05 
      -6.68505019e-07       9.48004503e-06      -2.04293340e-05 
       2.44787731e-07       9.48401700e-06      -2.04293369e-05 
       6.66600472e-07       9.48401762e-06      -2.04253676e-05 
      -2.52604219e-07       1.00742119e-05      -2.17122146e-05 
      -6.84134398e-07       1.00742112e-05      -2.17163042e-05 
       2.50652880e-07       1.00783036e-05      -2.17163072e-05 
       6.82183058e-07       1.00783042e-05      -2.17122177e-05 
      -2.52604219e-07       1.00742119e-05      -2.17122146e-05 
      -6.84134397e-07       1.00742112e-05      -2.17163042e-05 
       2.50652881e-07       1.00783036e-05      -2.17163072e-05 
       6.82183058e-07       1.00783042e-05      -2.17122177e-05 
      -2.58355207e-07       1.06817200e-05      -2.30285890e-05 
      -6.99324116e-07       1.06817194e-05      -2.30327828e-05 
       2.56371188e-07       1.06859161e-05      -2.30327860e-05 
       6.97340098e-07       1.06859167e-05      -2.30285922e-05 
      -2.58355207e-07       1.06817200e-05      -2.30285890e-05 
      -6.99324116e-07       1.06817194e-05      -2.30327828e-05 
       2.56371188e-07       1.06859161e-05      -2.30327860e-05 
       6.97340098e-07       1.06859167e-05      -2.30285922e-05 
      -2.63962333e-07       1.13021928e-05      -2.43736997e-05 
      -7.14111559e-07       1.13021921e-05      -2.43779977e-05 
       2.61945135e-07       1.13064932e-05      -2.43780010e-05 
       7.12094361e-07       1.13064939e-05      -2.43737030e-05 
      -2.63962333e-07       1.13021928e-05      -2.43736997e-05 
      -7.14111559e-07       1.13021921e-05      -2.43779977e-05 
       2.61945135e-07       1.13064932e-05      -2.43780010e-05 
       7.12094361e-07       1.13064939e-05      -2.43737030e-05 
      -2.69425589e-07       1.19352704e-05      -2.57467855e-05 
      -7.28496718e-07       1.19352697e-05      -2.57511877e-05 
       2.67374729e-07       1.19396751e-05      -2.57511912e-05 
       7.26445858e-07       1.19396758e-05      -2.57467890e-05 
      -2.69425589e-07       1.19352704e-05      -2.57467855e-05 
      -7.28496718e-07       1.19352697e-05      -2.57511877e-05 
       2.67374729e-07       1.19396751e-05      -2.57511912e-05 
       7.26445858e-07       1.19396758e-05      -2.57467890e-05 
      -2.74744970e-07       1.25805929e-05      -2.71470851e-05 
      -7.42479588e-07       1.25805921e-05      -2.71515916e-05 
       2.72659975e-07       1.25851019e-05      -2.71515952e-05 
       7.40394593e-07       1.25851026e-05      -2.71470887e-05 
      -2.74744970e-07       1.25805929e-05      -2.71470851e-05 
      -7.42479588e-07       1.25805921e-05      -2.71515916e-05 
       2.72659975e-07       1.25851019e-05      -2.71515952e-05 
       7.40394593e-07       1.25851026e-05      -2.71470887e-05 
      -2.79920470e-07       1.32378004e-05      -2.85738373e-05 
      -7.56060163e-07       1.32377996e-05      -2.85784480e-05 
       2.77800879e-07       1.32424137e-05      -2.85784517e-05 
       7.53940573e-07       1.32424145e-05      -2.85738410e-05 
      -2.79920470e-07       1.32378004e-05      -2.85738373e-05 
      -7.56060163e-07       1.32377996e-05      -2.85784480e-05 
       2.77800879e-07       1.32424137e-05      -2.85784517e-05 
       7.53940573e-07       1.32424145e-05      -2.85738410e-05 
      -2.84952081e-07       1.39065330e-05      -3.00262808e-05 
      -7.69238436e-07       1.39065322e-05      -3.00309957e-05 
       2.82797450e-07       1.39112507e-05      -3.00309995e-05 
       7.67083804e-07       1.39112515e-05      -3.00262846e-05 
      -2.84952081e-07       1.39065330e-05      -3.00262808e-05 
      -7.69238436e-07       1.39065322e-05      -3.00309957e-05 
       2.82797450e-07       1.39112507e-05      -3.00309995e-05 
       7.67083804e-07       1.39112515e-05      -3.00262846e-05 
      -2.89839796e-07       1.45864310e-05      -3.15036543e-05 
      -7.82014398e-07       1.45864301e-05      -3.15084734e-05 
       2.87649693e-07       1.45912529e-05      -3.15084774e-05 
       7.79824296e-07       1.45912537e-05      -3.15036583e-05 
      -2.89839796e-07       1.45864310e-05      -3.15036543e-05 
      -7.82014398e-07       1.45864301e-05      -3.15084734e-05 
       2.87649693e-07       1.45912529e-05      -3.15084774e-05 
       7.79824296e-07       1.45912537e-05      -3.15036583e-05 
      -2.94583608e-07       1.52771343e-05      -3.30051966e-05 
      -7.94388043e-07       1.52771334e-05      -3.30101199e-05 
       2.92357617e-07       1.52820605e-05      -3.30101240e-05 
       7.92162052e-07       1.52820614e-05      -3.30052007e-05 
      -2.94583608e-07       1.52771343e-05      -3.30051966e-05 
      -7.94388043e-07       1.52771334e-05      -3.30101199e-05 