# vtk DataFile Version 2.0
./output/onsasExample_BladeCantileverBeamPitch_windVel3DDynamic 3D/onsasExample_BladeCantileverBeamPitch_windVel3DDynamic 3D_0090.vtk
ASCII
DATASET UNSTRUCTURED_GRID

POINTS 800 float
      -8.343075e-24      -7.180703e-02      -7.180703e-02 
      -1.342603e-24       7.180703e-02      -7.180703e-02 
       8.343075e-24       7.180703e-02       7.180703e-02 
       1.342603e-24      -7.180703e-02       7.180703e-02 
       2.000000e-01      -7.180702e-02      -7.180706e-02 
       2.000000e-01       7.180705e-02      -7.180706e-02 
       2.000000e-01       7.180705e-02       7.180700e-02 
       2.000000e-01      -7.180702e-02       7.180700e-02 
       2.000000e-01      -7.180702e-02      -7.180706e-02 
       2.000000e-01       7.180705e-02      -7.180706e-02 
       2.000000e-01       7.180705e-02       7.180700e-02 
       2.000000e-01      -7.180702e-02       7.180700e-02 
       4.000000e-01      -7.180698e-02      -7.180715e-02 
       3.999999e-01       7.180709e-02      -7.180715e-02 
       4.000000e-01       7.180709e-02       7.180692e-02 
       4.000001e-01      -7.180698e-02       7.180692e-02 
       4.000000e-01      -7.180698e-02      -7.180715e-02 
       3.999999e-01       7.180709e-02      -7.180715e-02 
       4.000000e-01       7.180709e-02       7.180692e-02 
       4.000001e-01      -7.180698e-02       7.180692e-02 
       6.000000e-01      -7.180691e-02      -7.180729e-02 
       5.999999e-01       7.180716e-02      -7.180729e-02 
       6.000000e-01       7.180716e-02       7.180678e-02 
       6.000001e-01      -7.180691e-02       7.180678e-02 
       6.000000e-01      -7.180691e-02      -7.180729e-02 
       5.999999e-01       7.180716e-02      -7.180729e-02 
       6.000000e-01       7.180716e-02       7.180678e-02 
       6.000001e-01      -7.180691e-02       7.180678e-02 
       8.000000e-01      -7.180682e-02      -7.180748e-02 
       7.999999e-01       7.180725e-02      -7.180748e-02 
       8.000000e-01       7.180725e-02       7.180658e-02 
       8.000001e-01      -7.180682e-02       7.180659e-02 
       8.000000e-01      -7.180682e-02      -7.180748e-02 
       7.999999e-01       7.180725e-02      -7.180748e-02 
       8.000000e-01       7.180725e-02       7.180658e-02 
       8.000001e-01      -7.180682e-02       7.180659e-02 
       9.999999e-01      -7.180670e-02      -7.180773e-02 
       9.999999e-01       7.180737e-02      -7.180773e-02 
       1.000000e+00       7.180737e-02       7.180634e-02 
       1.000000e+00      -7.180670e-02       7.180634e-02 
       9.999999e-01      -7.180670e-02      -7.180773e-02 
       9.999999e-01       7.180737e-02      -7.180773e-02 
       1.000000e+00       7.180737e-02       7.180634e-02 
       1.000000e+00      -7.180670e-02       7.180634e-02 
       1.200000e+00      -7.180655e-02      -7.180803e-02 
       1.200000e+00       7.180751e-02      -7.180803e-02 
       1.200000e+00       7.180751e-02       7.180604e-02 
       1.200000e+00      -7.180655e-02       7.180604e-02 
       1.200000e+00      -7.180655e-02      -7.180803e-02 
       1.200000e+00       7.180751e-02      -7.180803e-02 
       1.200000e+00       7.180751e-02       7.180604e-02 
       1.200000e+00      -7.180655e-02       7.180604e-02 
       1.400000e+00      -7.180638e-02      -7.180838e-02 
       1.400000e+00       7.180768e-02      -7.180838e-02 
       1.400000e+00       7.180768e-02       7.180569e-02 
       1.400000e+00      -7.180638e-02       7.180569e-02 
       1.400000e+00      -7.180638e-02      -7.180838e-02 
       1.400000e+00       7.180768e-02      -7.180838e-02 
       1.400000e+00       7.180768e-02       7.180569e-02 
       1.400000e+00      -7.180638e-02       7.180569e-02 
       1.600000e+00      -7.180619e-02      -7.180878e-02 
       1.600000e+00       7.180788e-02      -7.180878e-02 
       1.600000e+00       7.180788e-02       7.180528e-02 
       1.600000e+00      -7.180619e-02       7.180529e-02 
       1.600000e+00      -7.180619e-02      -7.180878e-02 
       1.600000e+00       7.180788e-02      -7.180878e-02 
       1.600000e+00       7.180788e-02       7.180528e-02 
       1.600000e+00      -7.180619e-02       7.180529e-02 
       1.800000e+00      -7.180597e-02      -7.180923e-02 
       1.800000e+00       7.180809e-02      -7.180923e-02 
       1.800000e+00       7.180809e-02       7.180483e-02 
       1.800000e+00      -7.180597e-02       7.180484e-02 
       1.800000e+00      -7.180597e-02      -7.180923e-02 
       1.800000e+00       7.180809e-02      -7.180923e-02 
       1.800000e+00       7.180809e-02       7.180483e-02 
       1.800000e+00      -7.180597e-02       7.180484e-02 
       2.000000e+00      -7.180573e-02      -7.180973e-02 
       2.000000e+00       7.180833e-02      -7.180973e-02 
       2.000000e+00       7.180833e-02       7.180434e-02 
       2.000000e+00      -7.180573e-02       7.180434e-02 
       2.000000e+00      -7.180573e-02      -7.180973e-02 
       2.000000e+00       7.180833e-02      -7.180973e-02 
       2.000000e+00       7.180833e-02       7.180434e-02 
       2.000000e+00      -7.180573e-02       7.180434e-02 
       2.200000e+00      -7.180547e-02      -7.181027e-02 
       2.200000e+00       7.180859e-02      -7.181028e-02 
       2.200000e+00       7.180860e-02       7.180379e-02 
       2.200000e+00      -7.180547e-02       7.180379e-02 
       2.200000e+00      -7.180547e-02      -7.181027e-02 
       2.200000e+00       7.180859e-02      -7.181028e-02 
       2.200000e+00       7.180860e-02       7.180379e-02 
       2.200000e+00      -7.180547e-02       7.180379e-02 
       2.400000e+00      -7.180519e-02      -7.181087e-02 
       2.400000e+00       7.180888e-02      -7.181087e-02 
       2.400000e+00       7.180888e-02       7.180320e-02 
       2.400000e+00      -7.180519e-02       7.180320e-02 
       2.400000e+00      -7.180519e-02      -7.181087e-02 
       2.400000e+00       7.180888e-02      -7.181087e-02 
       2.400000e+00       7.180888e-02       7.180320e-02 
       2.400000e+00      -7.180519e-02       7.180320e-02 
       2.600000e+00      -7.180488e-02      -7.181150e-02 
       2.600000e+00       7.180918e-02      -7.181150e-02 
       2.600000e+00       7.180919e-02       7.180256e-02 
       2.600000e+00      -7.180488e-02       7.180256e-02 
       2.600000e+00      -7.180488e-02      -7.181150e-02 
       2.600000e+00       7.180918e-02      -7.181150e-02 
       2.600000e+00       7.180919e-02       7.180256e-02 
       2.600000e+00      -7.180488e-02       7.180256e-02 
       2.800000e+00      -7.180456e-02      -7.181218e-02 
       2.800000e+00       7.180951e-02      -7.181218e-02 
       2.800000e+00       7.180951e-02       7.180188e-02 
       2.800000e+00      -7.180455e-02       7.180188e-02 
       2.800000e+00      -7.180456e-02      -7.181218e-02 
       2.800000e+00       7.180951e-02      -7.181218e-02 
       2.800000e+00       7.180951e-02       7.180188e-02 
       2.800000e+00      -7.180455e-02       7.180188e-02 
       3.000000e+00      -7.180421e-02      -7.181291e-02 
       3.000000e+00       7.180986e-02      -7.181291e-02 
       3.000000e+00       7.180986e-02       7.180116e-02 
       3.000000e+00      -7.180421e-02       7.180116e-02 
       3.000000e+00      -7.180421e-02      -7.181291e-02 
       3.000000e+00       7.180986e-02      -7.181291e-02 
       3.000000e+00       7.180986e-02       7.180116e-02 
       3.000000e+00      -7.180421e-02       7.180116e-02 
       3.200000e+00      -7.180384e-02      -7.181367e-02 
       3.200000e+00       7.181023e-02      -7.181367e-02 
       3.200000e+00       7.181023e-02       7.180039e-02 
       3.200000e+00      -7.180384e-02       7.180039e-02 
       3.200000e+00      -7.180384e-02      -7.181367e-02 
       3.200000e+00       7.181023e-02      -7.181367e-02 
       3.200000e+00       7.181023e-02       7.180039e-02 
       3.200000e+00      -7.180384e-02       7.180039e-02 
       3.400000e+00      -7.180345e-02      -7.181448e-02 
       3.400000e+00       7.181061e-02      -7.181448e-02 
       3.400000e+00       7.181062e-02       7.179959e-02 
       3.400000e+00      -7.180345e-02       7.179959e-02 
       3.400000e+00      -7.180345e-02      -7.181448e-02 
       3.400000e+00       7.181061e-02      -7.181448e-02 
       3.400000e+00       7.181062e-02       7.179959e-02 
       3.400000e+00      -7.180345e-02       7.179959e-02 
       3.600000e+00      -7.180305e-02      -7.181533e-02 
       3.600000e+00       7.181102e-02      -7.181533e-02 
       3.600000e+00       7.181102e-02       7.179874e-02 
       3.600000e+00      -7.180304e-02       7.179874e-02 
       3.600000e+00      -7.180305e-02      -7.181533e-02 
       3.600000e+00       7.181102e-02      -7.181533e-02 
       3.600000e+00       7.181102e-02       7.179874e-02 
       3.600000e+00      -7.180304e-02       7.179874e-02 
       3.800000e+00      -7.180262e-02      -7.181621e-02 
       3.800000e+00       7.181144e-02      -7.181622e-02 
       3.800000e+00       7.181145e-02       7.179785e-02 
       3.800000e+00      -7.180262e-02       7.179785e-02 
       3.800000e+00      -7.180262e-02      -7.181621e-02 
       3.800000e+00       7.181144e-02      -7.181622e-02 
       3.800000e+00       7.181145e-02       7.179785e-02 
       3.800000e+00      -7.180262e-02       7.179785e-02 
       4.000000e+00      -7.180218e-02      -7.181714e-02 
       3.999999e+00       7.181189e-02      -7.181714e-02 
       4.000000e+00       7.181189e-02       7.179693e-02 
       4.000001e+00      -7.180218e-02       7.179693e-02 
       4.000000e+00      -7.180218e-02      -7.181714e-02 
       3.999999e+00       7.181189e-02      -7.181714e-02 
       4.000000e+00       7.181189e-02       7.179693e-02 
       4.000001e+00      -7.180218e-02       7.179693e-02 
       4.200000e+00      -7.180172e-02      -7.181810e-02 
[...]
POINT_DATA       800 
VECTORS Displacements float
      -8.34307518e-24       0.00000000e+00      -1.38777878e-17 
      -1.34260321e-24       0.00000000e+00       0.00000000e+00 
       8.34307518e-24       0.00000000e+00       1.38777878e-17 
       1.34260321e-24       0.00000000e+00       0.00000000e+00 
      -1.06047402e-08       1.37115032e-08      -2.84648150e-08 
      -3.03417048e-08       1.37115019e-08      -2.86157488e-08 
       1.05207413e-08       1.38624413e-08      -2.86157546e-08 
       3.02577059e-08       1.38624426e-08      -2.84648208e-08 
      -1.06047402e-08       1.37115032e-08      -2.84648150e-08 
      -3.03417048e-08       1.37115019e-08      -2.86157488e-08 
       1.05207413e-08       1.38624413e-08      -2.86157546e-08 
       3.02577059e-08       1.38624426e-08      -2.84648208e-08 
      -2.10225184e-08       5.46456397e-08      -1.13311559e-07 
      -6.01180517e-08       5.46456344e-08      -1.13613421e-07 
       2.08543331e-08       5.49475187e-08      -1.13613444e-07 
       5.99498663e-08       5.49475240e-08      -1.13311582e-07 
      -2.10225184e-08       5.46456397e-08      -1.13311559e-07 
      -6.01180517e-08       5.46456344e-08      -1.13613421e-07 
       2.08543331e-08       5.49475187e-08      -1.13613444e-07 
       5.99498663e-08       5.49475240e-08      -1.13311582e-07 
      -3.12533331e-08       1.22275447e-07      -2.53492275e-07 
      -8.93290388e-08       1.22275436e-07      -2.53945060e-07 
       3.10007773e-08       1.22728270e-07      -2.53945111e-07 
       8.90764830e-08       1.22728282e-07      -2.53492325e-07 
      -3.12533331e-08       1.22275447e-07      -2.53492275e-07 
      -8.93290388e-08       1.22275436e-07      -2.53945060e-07 
       3.10007773e-08       1.22728270e-07      -2.53945111e-07 
       8.90764830e-08       1.22728282e-07      -2.53492325e-07 
      -4.12971822e-08       2.16073963e-07      -4.47959004e-07 
      -1.17974664e-07       2.16073943e-07      -4.48562708e-07 
       4.09600758e-08       2.16677732e-07      -4.48562796e-07 
       1.17637558e-07       2.16677752e-07      -4.47959092e-07 
      -4.12971822e-08       2.16073963e-07      -4.47959004e-07 
      -1.17974664e-07       2.16073943e-07      -4.48562708e-07 
       4.09600758e-08       2.16677732e-07      -4.48562796e-07 
       1.17637558e-07       2.16677752e-07      -4.47959092e-07 
      -5.11540641e-08       3.35514226e-07      -6.95663790e-07 
      -1.46054927e-07       3.35514194e-07      -6.96418408e-07 
       5.07322302e-08       3.36268943e-07      -6.96418543e-07 
       1.45633092e-07       3.36268974e-07      -6.95663925e-07 
      -5.11540641e-08       3.35514226e-07      -6.95663790e-07 
      -1.46054927e-07       3.35514194e-07      -6.96418408e-07 
       5.07322302e-08       3.36268943e-07      -6.96418543e-07 
       1.45633092e-07       3.36268974e-07      -6.95663925e-07 
      -6.08239772e-08       4.80069272e-07      -9.95558675e-07 
      -1.73569824e-07       4.80069228e-07      -9.96464203e-07 
       6.03172419e-08       4.80974939e-07      -9.96464393e-07 
       1.73063089e-07       4.80974984e-07      -9.95558865e-07 
      -6.08239772e-08       4.80069272e-07      -9.95558675e-07 
      -1.73569824e-07       4.80069228e-07      -9.96464203e-07 
       6.03172419e-08       4.80974939e-07      -9.96464393e-07 
       1.73063089e-07       4.80974984e-07      -9.95558865e-07 
      -7.03069196e-08       6.49212140e-07      -1.34659570e-06 
      -2.00519354e-07       6.49212081e-07      -1.34765213e-06 
       6.97151135e-08       6.50268760e-07      -1.34765239e-06 
       1.99927549e-07       6.50268819e-07      -1.34659596e-06 
      -7.03069196e-08       6.49212140e-07      -1.34659570e-06 
      -2.00519354e-07       6.49212081e-07      -1.34765213e-06 
       6.97151135e-08       6.50268760e-07      -1.34765239e-06 
       1.99927549e-07       6.50268819e-07      -1.34659596e-06 
      -7.96028894e-08       8.42415866e-07      -1.74772691e-06 
      -2.26903517e-07       8.42415791e-07      -1.74893425e-06 
       7.89258463e-08       8.43623441e-07      -1.74893457e-06 
       2.26226473e-07       8.43623516e-07      -1.74772724e-06 
      -7.96028894e-08       8.42415866e-07      -1.74772691e-06 
      -2.26903517e-07       8.42415791e-07      -1.74893425e-06 
       7.89258463e-08       8.43623441e-07      -1.74893457e-06 
       2.26226473e-07       8.43623516e-07      -1.74772724e-06 
      -8.87118852e-08       1.05915349e-06      -2.19790435e-06 
      -2.52722309e-07       1.05915340e-06      -2.19926258e-06 
       8.79494415e-08       1.06051202e-06      -2.19926299e-06 
       2.51959865e-07       1.06051211e-06      -2.19790475e-06 
      -8.87118852e-08       1.05915349e-06      -2.19790435e-06 
      -2.52722309e-07       1.05915340e-06      -2.19926258e-06 
       8.79494415e-08       1.06051202e-06      -2.19926299e-06 
       2.51959865e-07       1.06051211e-06      -2.19790475e-06 
      -9.76339050e-08       1.29889805e-06      -2.69608005e-06 
      -2.77975728e-07       1.29889793e-06      -2.69758918e-06 
       9.67859020e-08       1.30040754e-06      -2.69758967e-06 
       2.77127725e-07       1.30040765e-06      -2.69608054e-06 
      -9.76339050e-08       1.29889805e-06      -2.69608005e-06 
      -2.77975728e-07       1.29889793e-06      -2.69758918e-06 
       9.67859020e-08       1.30040754e-06      -2.69758967e-06 
       2.77127725e-07       1.30040765e-06      -2.69608054e-06 
      -1.06363388e-07       1.56114005e-06      -3.24123235e-06 
      -3.02678538e-07       1.56113991e-06      -3.24287640e-06 
       1.05459319e-07       1.56278453e-06      -3.24287698e-06 
       3.01774470e-07       1.56278466e-06      -3.24123293e-06 
      -1.06363388e-07       1.56114005e-06      -3.24123235e-06 
      -3.02678538e-07       1.56113991e-06      -3.24287640e-06 
       1.05459319e-07       1.56278453e-06      -3.24287698e-06 
       3.01774470e-07       1.56278466e-06      -3.24123293e-06 
      -1.14923675e-07       1.84539134e-06      -3.83239366e-06 
      -3.26873936e-07       1.84539118e-06      -3.83417264e-06 
       1.13963122e-07       1.84717081e-06      -3.83417332e-06 
       3.25913384e-07       1.84717097e-06      -3.83239434e-06 
      -1.14923675e-07       1.84539134e-06      -3.83239366e-06 
      -3.26873936e-07       1.84539118e-06      -3.83417264e-06 
       1.13963122e-07       1.84717081e-06      -3.83417332e-06 
       3.25913384e-07       1.84717097e-06      -3.83239434e-06 
      -1.23314762e-07       2.15118091e-06      -4.46862116e-06 
      -3.50561918e-07       2.15118073e-06      -4.47053506e-06 
       1.22297315e-07       2.15309538e-06      -4.47053584e-06 
       3.49544470e-07       2.15309556e-06      -4.46862194e-06 
      -1.23314762e-07       2.15118091e-06      -4.46862116e-06 
      -3.50561918e-07       2.15118073e-06      -4.47053506e-06 
       1.22297315e-07       2.15309538e-06      -4.47053584e-06 
       3.49544470e-07       2.15309556e-06      -4.46862194e-06 
      -1.31536646e-07       2.47803775e-06      -5.14897199e-06 
      -3.73742478e-07       2.47803755e-06      -5.15102082e-06 
       1.30461903e-07       2.48008722e-06      -5.15102170e-06 
       3.72667734e-07       2.48008743e-06      -5.14897288e-06 
      -1.31536646e-07       2.47803775e-06      -5.14897199e-06 
      -3.73742478e-07       2.47803755e-06      -5.15102082e-06 
       1.30461903e-07       2.48008722e-06      -5.15102170e-06 
       3.72667734e-07       2.48008743e-06      -5.14897288e-06 
      -1.39589321e-07       2.82549086e-06      -5.87250333e-06 
      -3.96415613e-07       2.82549064e-06      -5.87468707e-06 
       1.38456888e-07       2.82767533e-06      -5.87468806e-06 
       3.95283180e-07       2.82767556e-06      -5.87250432e-06 
      -1.39589321e-07       2.82549086e-06      -5.87250333e-06 
      -3.96415613e-07       2.82549064e-06      -5.87468707e-06 
       1.38456888e-07       2.82767533e-06      -5.87468806e-06 
       3.95283180e-07       2.82767556e-06      -5.87250432e-06 
      -1.47472783e-07       3.19306923e-06      -6.63827231e-06 
      -4.18581319e-07       3.19306898e-06      -6.64059097e-06 
       1.46282275e-07       3.19538870e-06      -6.64059208e-06 
       4.17390811e-07       3.19538896e-06      -6.63827342e-06 
      -1.47472783e-07       3.19306923e-06      -6.63827231e-06 
      -4.18581319e-07       3.19306898e-06      -6.64059097e-06 
       1.46282275e-07       3.19538870e-06      -6.64059208e-06 
       4.17390811e-07       3.19538896e-06      -6.63827342e-06 
      -1.55187029e-07       3.58030185e-06      -7.44533611e-06 
      -4.40239590e-07       3.58030157e-06      -7.44778968e-06 
       1.53938071e-07       3.58275632e-06      -7.44779091e-06 
       4.38990633e-07       3.58275660e-06      -7.44533734e-06 
      -1.55187029e-07       3.58030185e-06      -7.44533611e-06 
      -4.40239590e-07       3.58030157e-06      -7.44778968e-06 
       1.53938071e-07       3.58275632e-06      -7.44779091e-06 
       4.38990633e-07       3.58275660e-06      -7.44533734e-06 
      -1.62732053e-07       3.98671771e-06      -8.29275188e-06 
      -4.61390424e-07       3.98671740e-06      -8.29534037e-06 
       1.61424277e-07       3.98930718e-06      -8.29534172e-06 
       4.60082648e-07       3.98930749e-06      -8.29275323e-06 
      -1.62732053e-07       3.98671771e-06      -8.29275188e-06 
      -4.61390424e-07       3.98671740e-06      -8.29534037e-06 
       1.61424277e-07       3.98930718e-06      -8.29534172e-06 
       4.60082648e-07       3.98930749e-06      -8.29275323e-06 
      -1.70107850e-07       4.41184580e-06      -9.17957678e-06 
      -4.82033814e-07       4.41184546e-06      -9.18230018e-06 
       1.68740900e-07       4.41457027e-06      -9.18230165e-06 
       4.80666863e-07       4.41457061e-06      -9.17957826e-06 
      -1.70107850e-07       4.41184580e-06      -9.17957678e-06 
      -4.82033814e-07       4.41184546e-06      -9.18230018e-06 
       1.68740900e-07       4.41457027e-06      -9.18230165e-06 
       4.80666863e-07       4.41457061e-06      -9.17957826e-06 
      -1.77314419e-07       4.85521512e-06      -1.01048680e-05 
      -5.02169758e-07       4.85521475e-06      -1.01077263e-05 
       1.75887942e-07       4.85807459e-06      -1.01077279e-05 
       5.00743281e-07       4.85807496e-06      -1.01048696e-05 
      -1.77314419e-07       4.85521512e-06      -1.01048680e-05 
      -5.02169758e-07       4.85521475e-06      -1.01077263e-05 
       1.75887942e-07       4.85807459e-06      -1.01077279e-05 
       5.00743282e-07       4.85807496e-06      -1.01048696e-05 
      -1.84350089e-07       5.31637200e-06      -1.10677082e-05 
      -5.21816695e-07       5.31637160e-06      -1.10706855e-05 
       1.82884636e-07       5.31935054e-06      -1.10706872e-05 
       5.20351241e-07       5.31935093e-06      -1.10677099e-05 
      -1.84350089e-07       5.31637200e-06      -1.10677082e-05 
      -5.21816695e-07       5.31637160e-06      -1.10706855e-05 
       1.82884636e-07       5.31935054e-06      -1.10706872e-05 
       5.20351241e-07       5.31935093e-06      -1.10677099e-05 
      -1.91233788e-07       5.79488385e-06      -1.20672332e-05 
      -5.41013320e-07       5.79488343e-06      -1.20703294e-05 
       1.89728856e-07       5.79798146e-06      -1.20703313e-05 
       5.39508388e-07       5.79798188e-06      -1.20672350e-05 
      -1.91233788e-07       5.79488385e-06      -1.20672332e-05 
      -5.41013320e-07       5.79488343e-06      -1.20703294e-05 
       1.89728856e-07       5.79798146e-06      -1.20703313e-05 
       5.39508388e-07       5.79798188e-06      -1.20672350e-05 
      -1.97965507e-07       6.29033521e-06      -1.31026034e-05 
      -5.59759627e-07       6.29033476e-06      -1.31058187e-05 
       1.96420607e-07       6.29355188e-06      -1.31058207e-05 
       5.58214727e-07       6.29355234e-06      -1.31026054e-05 
      -1.97965507e-07       6.29033521e-06      -1.31026034e-05 
      -5.59759627e-07       6.29033476e-06      -1.31058187e-05 
       1.96420607e-07       6.29355188e-06      -1.31058207e-05 
       5.58214727e-07       6.29355234e-06      -1.31026054e-05 
      -2.04545245e-07       6.80231061e-06      -1.41729796e-05 
      -5.78055613e-07       6.80231012e-06      -1.41763138e-05 
       2.02959894e-07       6.80564634e-06      -1.41763159e-05 
       5.76470263e-07       6.80564683e-06      -1.41729817e-05 
      -2.04545245e-07       6.80231061e-06      -1.41729796e-05 
      -5.78055613e-07       6.80231012e-06      -1.41763138e-05 
       2.02959894e-07       6.80564634e-06      -1.41763159e-05 
       5.76470263e-07       6.80564683e-06      -1.41729817e-05 
      -2.10972993e-07       7.33039456e-06      -1.52775221e-05 
      -5.95901271e-07       7.33039404e-06      -1.52809753e-05 
       2.09346724e-07       7.33384936e-06      -1.52809776e-05 
       5.94275003e-07       7.33384988e-06      -1.52775244e-05 
      -2.10972993e-07       7.33039456e-06      -1.52775221e-05 
      -5.95901271e-07       7.33039404e-06      -1.52809753e-05 
       2.09346724e-07       7.33384936e-06      -1.52809776e-05 
       5.94275003e-07       7.33384988e-06      -1.52775244e-05 
      -2.17248746e-07       7.87417159e-06      -1.64153916e-05 
      -6.13296594e-07       7.87417104e-06      -1.64189638e-05 
       2.15581102e-07       7.87774546e-06      -1.64189661e-05 
       6.11628951e-07       7.87774601e-06      -1.64153940e-05 
      -2.17248746e-07       7.87417159e-06      -1.64153916e-05 
      -6.13296594e-07       7.87417104e-06      -1.64189638e-05 
       2.15581102e-07       7.87774546e-06      -1.64189661e-05 
       6.11628951e-07       7.87774601e-06      -1.64153940e-05 
      -2.23372498e-07       8.43322624e-06      -1.75857486e-05 
      -6.30241576e-07       8.43322566e-06      -1.75894397e-05 
       2.21663035e-07       8.43691917e-06      -1.75894422e-05 
       6.28532114e-07       8.43691975e-06      -1.75857511e-05 
      -2.23372498e-07       8.43322624e-06      -1.75857486e-05 
      -6.30241576e-07       8.43322566e-06      -1.75894397e-05 
       2.21663035e-07       8.43691917e-06      -1.75894422e-05 
       6.28532114e-07       8.43691975e-06      -1.75857511e-05 
      -2.29344243e-07       9.00714302e-06      -1.87877537e-05 
      -6.46736212e-07       9.00714241e-06      -1.87915637e-05 
       2.27592530e-07       9.01095502e-06      -1.87915664e-05 
       6.44984500e-07       9.01095563e-06      -1.87877563e-05 
      -2.29344243e-07       9.00714302e-06      -1.87877537e-05 
      -6.46736212e-07       9.00714241e-06      -1.87915637e-05 
       2.27592530e-07       9.01095502e-06      -1.87915664e-05 
       6.44984500e-07       9.01095563e-06      -1.87877563e-05 
      -2.35163976e-07       9.59550646e-06      -2.00205673e-05 
      -6.62780498e-07       9.59550583e-06      -2.00244963e-05 
       2.33369589e-07       9.59943753e-06      -2.00244991e-05 
       6.60986111e-07       9.59943817e-06      -2.00205701e-05 
      -2.35163976e-07       9.59550646e-06      -2.00205673e-05 
      -6.62780498e-07       9.59550583e-06      -2.00244963e-05 
       2.33369589e-07       9.59943753e-06      -2.00244991e-05 
       6.60986111e-07       9.59943817e-06      -2.00205701e-05 
      -2.40831691e-07       1.01979011e-05      -2.12833501e-05 
      -6.78374425e-07       1.01979004e-05      -2.12873981e-05 
       2.38994220e-07       1.02019512e-05      -2.12874010e-05 
       6.76536954e-07       1.02019519e-05      -2.12833530e-05 
      -2.40831691e-07       1.01979011e-05      -2.12833501e-05 
      -6.78374425e-07       1.01979004e-05      -2.12873981e-05 
       2.38994221e-07       1.02019512e-05      -2.12874010e-05 
       6.76536954e-07       1.02019519e-05      -2.12833530e-05 
      -2.46348862e-07       1.08139287e-05      -2.25752877e-05 
      -6.93539415e-07       1.08139280e-05      -2.25794387e-05 
       2.44481941e-07       1.08180820e-05      -2.25794418e-05 
       6.91672494e-07       1.08180827e-05      -2.25752907e-05 
      -2.46348862e-07       1.08139287e-05      -2.25752877e-05 
      -6.93539415e-07       1.08139280e-05      -2.25794387e-05 
       2.44481941e-07       1.08180820e-05      -2.25794418e-05 
       6.91672494e-07       1.08180827e-05      -2.25752907e-05 
      -2.51731130e-07       1.14432119e-05      -2.38956183e-05 
      -7.08310830e-07       1.14432112e-05      -2.38998724e-05 
       2.49834269e-07       1.14474684e-05      -2.38998756e-05 
       7.06413969e-07       1.14474691e-05      -2.38956215e-05 
      -2.51731130e-07       1.14432119e-05      -2.38956183e-05 
      -7.08310830e-07       1.14432112e-05      -2.38998724e-05 
       2.49834269e-07       1.14474684e-05      -2.38998756e-05 
       7.06413969e-07       1.14474691e-05      -2.38956215e-05 
      -2.56978488e-07       1.20853906e-05      -2.52436054e-05 
      -7.22688662e-07       1.20853898e-05      -2.52479626e-05 
       2.55051212e-07       1.20897502e-05      -2.52479659e-05 
       7.20761387e-07       1.20897509e-05      -2.52436087e-05 
      -2.56978488e-07       1.20853906e-05      -2.52436054e-05 
      -7.22688662e-07       1.20853898e-05      -2.52479626e-05 
       2.55051212e-07       1.20897502e-05      -2.52479659e-05 
       7.20761387e-07       1.20897509e-05      -2.52436087e-05 
      -2.62090931e-07       1.27401044e-05      -2.66185123e-05 
      -7.36672907e-07       1.27401036e-05      -2.66229725e-05 
       2.60132774e-07       1.27445671e-05      -2.66229760e-05 
       7.34714749e-07       1.27445679e-05      -2.66185157e-05 
      -2.62090931e-07       1.27401044e-05      -2.66185123e-05 
      -7.36672907e-07       1.27401036e-05      -2.66229725e-05 
       2.60132774e-07       1.27445671e-05      -2.66229760e-05 
       7.34714749e-07       1.27445679e-05      -2.66185157e-05 
      -2.67068452e-07       1.34069931e-05      -2.80196022e-05 
      -7.50263556e-07       1.34069923e-05      -2.80241655e-05 
       2.65078963e-07       1.34115590e-05      -2.80241691e-05 
       7.48274067e-07       1.34115598e-05      -2.80196058e-05 
      -2.67068452e-07       1.34069931e-05      -2.80196022e-05 
      -7.50263556e-07       1.34069923e-05      -2.80241655e-05 
       2.65078963e-07       1.34115590e-05      -2.80241691e-05 
       7.48274067e-07       1.34115598e-05      -2.80196058e-05 
      -2.71911045e-07       1.40856966e-05      -2.94461387e-05 
      -7.63460604e-07       1.40856958e-05      -2.94508051e-05 
       2.69889785e-07       1.40903656e-05      -2.94508088e-05 
       7.61439344e-07       1.40903665e-05      -2.94461424e-05 
      -2.71911045e-07       1.40856966e-05      -2.94461387e-05 
      -7.63460604e-07       1.40856958e-05      -2.94508051e-05 
       2.69889785e-07       1.40903656e-05      -2.94508088e-05 
       7.61439344e-07       1.40903665e-05      -2.94461424e-05 
      -2.76618703e-07       1.47758545e-05      -3.08973850e-05 
      -7.76264044e-07       1.47758537e-05      -3.09021544e-05 
       2.74565248e-07       1.47806267e-05      -3.09021582e-05 
       7.74210589e-07       1.47806276e-05      -3.08973888e-05 
      -2.76618703e-07       1.47758545e-05      -3.08973850e-05 
      -7.76264044e-07       1.47758537e-05      -3.09021544e-05 
       2.74565248e-07       1.47806267e-05      -3.09021582e-05 
       7.74210589e-07       1.47806276e-05      -3.08973888e-05 
      -2.81191419e-07       1.54771067e-05      -3.23726044e-05 
      -7.88673869e-07       1.54771058e-05      -3.23774769e-05 
       2.79105357e-07       1.54819821e-05      -3.23774808e-05 
       7.86587807e-07       1.54819830e-05      -3.23726084e-05 
      -2.81191419e-07       1.54771067e-05      -3.23726044e-05 
      -7.88673869e-07       1.54771058e-05      -3.23774769e-05 