# vtk DataFile Version 2.0
./output/onsasExample_BladeCantileverBeamPitch_windVel3DDynamic 3D/onsasExample_BladeCantileverBeamPitch_windVel3DDynamic 3D_0227.vtk
ASCII
DATASET UNSTRUCTURED_GRID

POINTS 800 float
       1.704752e-23      -7.180703e-02      -7.180703e-02 
      -6.267158e-24       7.180703e-02      -7.180703e-02 
      -1.704752e-23       7.180703e-02       7.180703e-02 
       6.267158e-24      -7.180703e-02       7.180703e-02 
       2.000000e-01      -7.180702e-02      -7.180706e-02 
       2.000000e-01       7.180705e-02      -7.180706e-02 
       2.000000e-01       7.180705e-02       7.180700e-02 
       2.000000e-01      -7.180702e-02       7.180700e-02 
       2.000000e-01      -7.180702e-02      -7.180706e-02 
       2.000000e-01       7.180705e-02      -7.180706e-02 
       2.000000e-01       7.180705e-02       7.180700e-02 
       2.000000e-01      -7.180702e-02       7.180700e-02 
       4.000000e-01      -7.180698e-02      -7.180715e-02 
       3.999999e-01       7.180709e-02      -7.180715e-02 
       4.000000e-01       7.180709e-02       7.180692e-02 
       4.000001e-01      -7.180698e-02       7.180692e-02 
       4.000000e-01      -7.180698e-02      -7.180715e-02 
       3.999999e-01       7.180709e-02      -7.180715e-02 
       4.000000e-01       7.180709e-02       7.180692e-02 
       4.000001e-01      -7.180698e-02       7.180692e-02 
       6.000000e-01      -7.180691e-02      -7.180729e-02 
       5.999999e-01       7.180716e-02      -7.180729e-02 
       6.000000e-01       7.180716e-02       7.180678e-02 
       6.000001e-01      -7.180691e-02       7.180678e-02 
       6.000000e-01      -7.180691e-02      -7.180729e-02 
       5.999999e-01       7.180716e-02      -7.180729e-02 
       6.000000e-01       7.180716e-02       7.180678e-02 
       6.000001e-01      -7.180691e-02       7.180678e-02 
       8.000000e-01      -7.180682e-02      -7.180748e-02 
       7.999999e-01       7.180725e-02      -7.180748e-02 
       8.000000e-01       7.180725e-02       7.180659e-02 
       8.000001e-01      -7.180682e-02       7.180659e-02 
       8.000000e-01      -7.180682e-02      -7.180748e-02 
       7.999999e-01       7.180725e-02      -7.180748e-02 
       8.000000e-01       7.180725e-02       7.180659e-02 
       8.000001e-01      -7.180682e-02       7.180659e-02 
       9.999999e-01      -7.180670e-02      -7.180773e-02 
       9.999999e-01       7.180737e-02      -7.180773e-02 
       1.000000e+00       7.180737e-02       7.180634e-02 
       1.000000e+00      -7.180669e-02       7.180634e-02 
       9.999999e-01      -7.180670e-02      -7.180773e-02 
       9.999999e-01       7.180737e-02      -7.180773e-02 
       1.000000e+00       7.180737e-02       7.180634e-02 
       1.000000e+00      -7.180669e-02       7.180634e-02 
       1.200000e+00      -7.180655e-02      -7.180802e-02 
       1.200000e+00       7.180752e-02      -7.180802e-02 
       1.200000e+00       7.180752e-02       7.180604e-02 
       1.200000e+00      -7.180655e-02       7.180604e-02 
       1.200000e+00      -7.180655e-02      -7.180802e-02 
       1.200000e+00       7.180752e-02      -7.180802e-02 
       1.200000e+00       7.180752e-02       7.180604e-02 
       1.200000e+00      -7.180655e-02       7.180604e-02 
       1.400000e+00      -7.180638e-02      -7.180837e-02 
       1.400000e+00       7.180769e-02      -7.180837e-02 
       1.400000e+00       7.180769e-02       7.180569e-02 
       1.400000e+00      -7.180638e-02       7.180569e-02 
       1.400000e+00      -7.180638e-02      -7.180837e-02 
       1.400000e+00       7.180769e-02      -7.180837e-02 
       1.400000e+00       7.180769e-02       7.180569e-02 
       1.400000e+00      -7.180638e-02       7.180569e-02 
       1.600000e+00      -7.180619e-02      -7.180877e-02 
       1.600000e+00       7.180788e-02      -7.180877e-02 
       1.600000e+00       7.180788e-02       7.180529e-02 
       1.600000e+00      -7.180618e-02       7.180529e-02 
       1.600000e+00      -7.180619e-02      -7.180877e-02 
       1.600000e+00       7.180788e-02      -7.180877e-02 
       1.600000e+00       7.180788e-02       7.180529e-02 
       1.600000e+00      -7.180618e-02       7.180529e-02 
       1.800000e+00      -7.180597e-02      -7.180922e-02 
       1.800000e+00       7.180810e-02      -7.180922e-02 
       1.800000e+00       7.180810e-02       7.180484e-02 
       1.800000e+00      -7.180597e-02       7.180485e-02 
       1.800000e+00      -7.180597e-02      -7.180922e-02 
       1.800000e+00       7.180810e-02      -7.180922e-02 
       1.800000e+00       7.180810e-02       7.180484e-02 
       1.800000e+00      -7.180597e-02       7.180485e-02 
       2.000000e+00      -7.180573e-02      -7.180972e-02 
       2.000000e+00       7.180834e-02      -7.180972e-02 
       2.000000e+00       7.180834e-02       7.180435e-02 
       2.000000e+00      -7.180572e-02       7.180435e-02 
       2.000000e+00      -7.180573e-02      -7.180972e-02 
       2.000000e+00       7.180834e-02      -7.180972e-02 
       2.000000e+00       7.180834e-02       7.180435e-02 
       2.000000e+00      -7.180572e-02       7.180435e-02 
       2.200000e+00      -7.180546e-02      -7.181026e-02 
       2.200000e+00       7.180860e-02      -7.181026e-02 
       2.200000e+00       7.180861e-02       7.180381e-02 
       2.200000e+00      -7.180546e-02       7.180381e-02 
       2.200000e+00      -7.180546e-02      -7.181026e-02 
       2.200000e+00       7.180860e-02      -7.181026e-02 
       2.200000e+00       7.180861e-02       7.180381e-02 
       2.200000e+00      -7.180546e-02       7.180381e-02 
       2.400000e+00      -7.180518e-02      -7.181085e-02 
       2.400000e+00       7.180889e-02      -7.181085e-02 
       2.400000e+00       7.180889e-02       7.180322e-02 
       2.400000e+00      -7.180517e-02       7.180322e-02 
       2.400000e+00      -7.180518e-02      -7.181085e-02 
       2.400000e+00       7.180889e-02      -7.181085e-02 
       2.400000e+00       7.180889e-02       7.180322e-02 
       2.400000e+00      -7.180517e-02       7.180322e-02 
       2.600000e+00      -7.180487e-02      -7.181148e-02 
       2.600000e+00       7.180920e-02      -7.181148e-02 
       2.600000e+00       7.180920e-02       7.180258e-02 
       2.600000e+00      -7.180487e-02       7.180259e-02 
       2.600000e+00      -7.180487e-02      -7.181148e-02 
       2.600000e+00       7.180920e-02      -7.181148e-02 
       2.600000e+00       7.180920e-02       7.180258e-02 
       2.600000e+00      -7.180487e-02       7.180259e-02 
       2.800000e+00      -7.180454e-02      -7.181216e-02 
       2.800000e+00       7.180953e-02      -7.181216e-02 
       2.800000e+00       7.180953e-02       7.180191e-02 
       2.800000e+00      -7.180454e-02       7.180191e-02 
       2.800000e+00      -7.180454e-02      -7.181216e-02 
       2.800000e+00       7.180953e-02      -7.181216e-02 
       2.800000e+00       7.180953e-02       7.180191e-02 
       2.800000e+00      -7.180454e-02       7.180191e-02 
       3.000000e+00      -7.180419e-02      -7.181288e-02 
       3.000000e+00       7.180988e-02      -7.181288e-02 
       3.000000e+00       7.180988e-02       7.180119e-02 
       3.000000e+00      -7.180419e-02       7.180119e-02 
       3.000000e+00      -7.180419e-02      -7.181288e-02 
       3.000000e+00       7.180988e-02      -7.181288e-02 
       3.000000e+00       7.180988e-02       7.180119e-02 
       3.000000e+00      -7.180419e-02       7.180119e-02 
       3.200000e+00      -7.180382e-02      -7.181364e-02 
       3.200000e+00       7.181025e-02      -7.181364e-02 
       3.200000e+00       7.181025e-02       7.180043e-02 
       3.200000e+00      -7.180382e-02       7.180043e-02 
       3.200000e+00      -7.180382e-02      -7.181364e-02 
       3.200000e+00       7.181025e-02      -7.181364e-02 
       3.200000e+00       7.181025e-02       7.180043e-02 
       3.200000e+00      -7.180382e-02       7.180043e-02 
       3.400000e+00      -7.180343e-02      -7.181444e-02 
       3.400000e+00       7.181064e-02      -7.181444e-02 
       3.400000e+00       7.181064e-02       7.179962e-02 
       3.400000e+00      -7.180343e-02       7.179963e-02 
       3.400000e+00      -7.180343e-02      -7.181444e-02 
       3.400000e+00       7.181064e-02      -7.181444e-02 
       3.400000e+00       7.181064e-02       7.179962e-02 
       3.400000e+00      -7.180343e-02       7.179963e-02 
       3.600000e+00      -7.180302e-02      -7.181528e-02 
       3.600000e+00       7.181105e-02      -7.181528e-02 
       3.600000e+00       7.181105e-02       7.179878e-02 
       3.600000e+00      -7.180302e-02       7.179878e-02 
       3.600000e+00      -7.180302e-02      -7.181528e-02 
       3.600000e+00       7.181105e-02      -7.181528e-02 
       3.600000e+00       7.181105e-02       7.179878e-02 
       3.600000e+00      -7.180302e-02       7.179878e-02 
       3.800000e+00      -7.180259e-02      -7.181616e-02 
       3.800000e+00       7.181147e-02      -7.181617e-02 
       3.800000e+00       7.181148e-02       7.179790e-02 
       3.800000e+00      -7.180259e-02       7.179790e-02 
       3.800000e+00      -7.180259e-02      -7.181616e-02 
       3.800000e+00       7.181147e-02      -7.181617e-02 
       3.800000e+00       7.181148e-02       7.179790e-02 
       3.800000e+00      -7.180259e-02       7.179790e-02 
       4.000000e+00      -7.180215e-02      -7.181708e-02 
       3.999999e+00       7.181192e-02      -7.181709e-02 
       4.000000e+00       7.181192e-02       7.179698e-02 
       4.000000e+00      -7.180214e-02       7.179698e-02 
       4.000000e+00      -7.180215e-02      -7.181708e-02 
       3.999999e+00       7.181192e-02      -7.181709e-02 
       4.000000e+00       7.181192e-02       7.179698e-02 
       4.000000e+00      -7.180214e-02       7.179698e-02 
       4.200000e+00      -7.180168e-02      -7.181804e-02 
[...]
POINT_DATA       800 
VECTORS Displacements float
       1.70475167e-23       0.00000000e+00       0.00000000e+00 
      -6.26715791e-24       0.00000000e+00       0.00000000e+00 
      -1.70475167e-23       0.00000000e+00       0.00000000e+00 
       6.26715791e-24       0.00000000e+00       0.00000000e+00 
      -1.04532934e-08       1.37949432e-08      -2.83408707e-08 
      -3.03100036e-08       1.37949418e-08      -2.84919404e-08 
       1.03740891e-08       1.39460171e-08      -2.84919461e-08 
       3.02307993e-08       1.39460185e-08      -2.83408765e-08 
      -1.04532934e-08       1.37949432e-08      -2.83408707e-08 
      -3.03100036e-08       1.37949418e-08      -2.84919404e-08 
       1.03740891e-08       1.39460171e-08      -2.84919461e-08 
       3.02307993e-08       1.39460185e-08      -2.83408765e-08 
      -2.07188271e-08       5.49785125e-08      -1.12813414e-07 
      -6.00527491e-08       5.49785071e-08      -1.13115548e-07 
       2.05602321e-08       5.52806631e-08      -1.13115570e-07 
       5.98941541e-08       5.52806685e-08      -1.12813437e-07 
      -2.07188271e-08       5.49785125e-08      -1.12813414e-07 
      -6.00527491e-08       5.49785071e-08      -1.13115548e-07 
       2.05602321e-08       5.52806631e-08      -1.13115570e-07 
       5.98941541e-08       5.52806685e-08      -1.12813437e-07 
      -3.07965994e-08       1.23022210e-07      -2.52365916e-07 
      -8.92282350e-08       1.23022199e-07      -2.52819110e-07 
       3.05584306e-08       1.23475440e-07      -2.52819159e-07 
       8.89900662e-08       1.23475452e-07      -2.52365966e-07 
      -3.07965994e-08       1.23022210e-07      -2.52365916e-07 
      -8.92282350e-08       1.23022199e-07      -2.52819110e-07 
       3.05584306e-08       1.23475440e-07      -2.52819159e-07 
       8.89900662e-08       1.23475452e-07      -2.52365966e-07 
      -4.06866081e-08       2.17397540e-07      -4.45946665e-07 
      -1.17836459e-07       2.17397519e-07      -4.46550912e-07 
       4.03686862e-08       2.18001852e-07      -4.46551000e-07 
       1.17518537e-07       2.18001872e-07      -4.45946752e-07 
      -4.06866081e-08       2.17397540e-07      -4.45946665e-07 
      -1.17836459e-07       2.17397519e-07      -4.46550912e-07 
       4.03686862e-08       2.18001852e-07      -4.46551000e-07 
       1.17518537e-07       2.18001872e-07      -4.45946752e-07 
      -5.03888521e-08       3.37576004e-07      -6.92503946e-07 
      -1.45877420e-07       3.37575972e-07      -6.93259244e-07 
       4.99910011e-08       3.38331399e-07      -6.93259377e-07 
       1.45479570e-07       3.38331431e-07      -6.92504080e-07 
      -5.03888521e-08       3.37576004e-07      -6.92503946e-07 
      -1.45877420e-07       3.37575972e-07      -6.93259244e-07 
       4.99910011e-08       3.38331399e-07      -6.93259377e-07 
       1.45479570e-07       3.38331431e-07      -6.92504080e-07 
      -5.99033292e-08       4.83029104e-07      -9.90986047e-07 
      -1.73351116e-07       4.83029059e-07      -9.91892390e-07 
       5.94253766e-08       4.83935586e-07      -9.91892579e-07 
       1.72873164e-07       4.83935631e-07      -9.90986236e-07 
      -5.99033292e-08       4.83029104e-07      -9.90986047e-07 
      -1.73351116e-07       4.83029059e-07      -9.91892390e-07 
       5.94253766e-08       4.83935586e-07      -9.91892579e-07 
       1.72873164e-07       4.83935631e-07      -9.90986236e-07 
      -6.92300375e-08       6.53228344e-07      -1.34034125e-06 
      -2.00257545e-07       6.53228285e-07      -1.34139864e-06 
       6.86718149e-08       6.54285915e-07      -1.34139889e-06 
       1.99699323e-07       6.54285975e-07      -1.34034151e-06 
      -6.92300375e-08       6.53228344e-07      -1.34034125e-06 
      -2.00257545e-07       6.53228285e-07      -1.34139864e-06 
       6.86718149e-08       6.54285915e-07      -1.34139889e-06 
       1.99699323e-07       6.54285975e-07      -1.34034151e-06 
      -7.83689758e-08       8.47645227e-07      -1.73951785e-06 
      -2.26596706e-07       8.47645151e-07      -1.74072628e-06 
       7.77303171e-08       8.48853888e-07      -1.74072660e-06 
       2.25958048e-07       8.48853964e-07      -1.73951818e-06 
      -7.83689758e-08       8.47645227e-07      -1.73951785e-06 
      -2.26596706e-07       8.47645151e-07      -1.74072628e-06 
       7.77303171e-08       8.48853888e-07      -1.74072660e-06 
       2.25958048e-07       8.48853964e-07      -1.73951818e-06 
      -8.73201420e-08       1.06575125e-06      -2.18746413e-06 
      -2.52368596e-07       1.06575116e-06      -2.18882359e-06 
       8.66008860e-08       1.06711101e-06      -2.18882399e-06 
       2.51649341e-07       1.06711110e-06      -2.18746453e-06 
      -8.73201420e-08       1.06575125e-06      -2.18746413e-06 
      -2.52368596e-07       1.06575116e-06      -2.18882359e-06 
       8.66008860e-08       1.06711101e-06      -2.18882399e-06 
       2.51649341e-07       1.06711110e-06      -2.18746453e-06 
      -9.60835345e-08       1.30701793e-06      -2.68312838e-06 
      -2.77573215e-07       1.30701782e-06      -2.68463887e-06 
       9.52835224e-08       1.30852878e-06      -2.68463935e-06 
       2.76773203e-07       1.30852889e-06      -2.68312886e-06 
      -9.60835345e-08       1.30701793e-06      -2.68312838e-06 
      -2.77573215e-07       1.30701782e-06      -2.68463887e-06 
       9.52835224e-08       1.30852878e-06      -2.68463935e-06 
       2.76773203e-07       1.30852889e-06      -2.68312886e-06 
      -1.04652557e-07       1.57093363e-06      -3.22548310e-06 
      -3.02223274e-07       1.57093349e-06      -3.22712862e-06 
       1.03801265e-07       1.57257957e-06      -3.22712919e-06 
       3.01371982e-07       1.57257971e-06      -3.22548367e-06 
      -1.04652557e-07       1.57093363e-06      -3.22548310e-06 
      -3.02223274e-07       1.57093349e-06      -3.22712862e-06 
       1.03801265e-07       1.57257957e-06      -3.22712919e-06 
       3.01371982e-07       1.57257971e-06      -3.22548367e-06 
      -1.13051620e-07       1.85700728e-06      -3.81355419e-06 
      -3.26363248e-07       1.85700713e-06      -3.81533474e-06 
       1.12148633e-07       1.85878833e-06      -3.81533541e-06 
       3.25460260e-07       1.85878849e-06      -3.81355486e-06 
      -1.13051620e-07       1.85700728e-06      -3.81355419e-06 
      -3.26363248e-07       1.85700713e-06      -3.81533474e-06 
       1.12148633e-07       1.85878833e-06      -3.81533541e-06 
       3.25460260e-07       1.85878849e-06      -3.81355486e-06 
      -1.21280719e-07       2.16476523e-06      -4.44639402e-06 
      -3.49993133e-07       2.16476505e-06      -4.44830961e-06 
       1.20325628e-07       2.16668138e-06      -4.44831038e-06 
       3.49038041e-07       2.16668156e-06      -4.44639479e-06 
      -1.21280719e-07       2.16476523e-06      -4.44639402e-06 
      -3.49993133e-07       2.16476505e-06      -4.44830961e-06 
       1.20325628e-07       2.16668138e-06      -4.44831038e-06 
       3.49038041e-07       2.16668156e-06      -4.44639479e-06 
      -1.29339850e-07       2.49373381e-06      -5.12305499e-06 
      -3.73112924e-07       2.49373360e-06      -5.12510560e-06 
       1.28332257e-07       2.49578506e-06      -5.12510647e-06 
       3.72105331e-07       2.49578527e-06      -5.12305586e-06 
      -1.29339850e-07       2.49373381e-06      -5.12305499e-06 
      -3.73112924e-07       2.49373360e-06      -5.12510560e-06 
       1.28332257e-07       2.49578506e-06      -5.12510647e-06 
       3.72105331e-07       2.49578527e-06      -5.12305586e-06 
      -1.37229009e-07       2.84343934e-06      -5.84258945e-06 
      -3.95722617e-07       2.84343911e-06      -5.84477509e-06 
       1.36168523e-07       2.84562570e-06      -5.84477607e-06 
       3.94662132e-07       2.84562593e-06      -5.84259044e-06 
      -1.37229009e-07       2.84343934e-06      -5.84258945e-06 
      -3.95722617e-07       2.84343911e-06      -5.84477509e-06 
       1.36168523e-07       2.84562570e-06      -5.84477607e-06 
       3.94662132e-07       2.84562593e-06      -5.84259044e-06 
      -1.44948191e-07       3.21340817e-06      -6.60404980e-06 
      -4.17822210e-07       3.21340791e-06      -6.60637045e-06 
       1.43834431e-07       3.21572964e-06      -6.60637155e-06 
       4.16708450e-07       3.21572990e-06      -6.60405090e-06 
      -1.44948191e-07       3.21340817e-06      -6.60404980e-06 
      -4.17822210e-07       3.21340791e-06      -6.60637045e-06 
       1.43834431e-07       3.21572964e-06      -6.60637155e-06 
       4.16708450e-07       3.21572990e-06      -6.60405090e-06 
      -1.52497391e-07       3.60316664e-06      -7.40648840e-06 
      -4.39411695e-07       3.60316635e-06      -7.40894407e-06 
       1.51329985e-07       3.60562321e-06      -7.40894529e-06 
       4.38244288e-07       3.60562349e-06      -7.40648961e-06 
      -1.52497391e-07       3.60316664e-06      -7.40648840e-06 
      -4.39411695e-07       3.60316635e-06      -7.40894407e-06 
       1.51329985e-07       3.60562321e-06      -7.40894529e-06 
       4.38244288e-07       3.60562349e-06      -7.40648961e-06 
      -1.59876606e-07       4.01224106e-06      -8.24895763e-06 
      -4.60491069e-07       4.01224075e-06      -8.25154833e-06 
       1.58655189e-07       4.01483274e-06      -8.25154966e-06 
       4.59269653e-07       4.01483305e-06      -8.24895896e-06 
      -1.59876606e-07       4.01224106e-06      -8.24895763e-06 
      -4.60491069e-07       4.01224075e-06      -8.25154833e-06 
       1.58655189e-07       4.01483274e-06      -8.25154966e-06 
       4.59269653e-07       4.01483305e-06      -8.24895896e-06 
      -1.67085831e-07       4.44015779e-06      -9.13050987e-06 
      -4.81060328e-07       4.44015744e-06      -9.13323558e-06 
       1.65810049e-07       4.44288457e-06      -9.13323704e-06 
       4.79784546e-07       4.44288492e-06      -9.13051132e-06 
      -1.67085831e-07       4.44015779e-06      -9.13050987e-06 
      -4.81060328e-07       4.44015744e-06      -9.13323558e-06 
       1.65810049e-07       4.44288457e-06      -9.13323704e-06 
       4.79784546e-07       4.44288492e-06      -9.13051132e-06 
      -1.74125063e-07       4.88644314e-06      -1.00501975e-05 
      -5.01119469e-07       4.88644277e-06      -1.00530582e-05 
       1.72794566e-07       4.88930504e-06      -1.00530598e-05 
       4.99788973e-07       4.88930541e-06      -1.00501991e-05 
      -1.74125062e-07       4.88644314e-06      -1.00501975e-05 
      -5.01119469e-07       4.88644277e-06      -1.00530582e-05 
       1.72794566e-07       4.88930504e-06      -1.00530598e-05 
       4.99788974e-07       4.88930541e-06      -1.00501991e-05 
      -1.80992878e-07       5.35064059e-06      -1.10070982e-05 
      -5.20686799e-07       5.35064018e-06      -1.10100780e-05 
       1.79628092e-07       5.35362161e-06      -1.10100797e-05 
       5.19322014e-07       5.35362201e-06      -1.10071000e-05 
      -1.80992878e-07       5.35064059e-06      -1.10070982e-05 
      -5.20686799e-07       5.35064018e-06      -1.10100780e-05 
       1.79628092e-07       5.35362161e-06      -1.10100797e-05 
       5.19322014e-07       5.35362201e-06      -1.10071000e-05 
      -1.87708999e-07       5.83231448e-06      -1.20003446e-05 
      -5.39802055e-07       5.83231405e-06      -1.20034434e-05 
       1.86309425e-07       5.83541464e-06      -1.20034453e-05 
       5.38402482e-07       5.83541507e-06      -1.20003465e-05 
      -1.87708999e-07       5.83231448e-06      -1.20003446e-05 
      -5.39802055e-07       5.83231405e-06      -1.20034434e-05 
       1.86309425e-07       5.83541464e-06      -1.20034453e-05 
       5.38402482e-07       5.83541507e-06      -1.20003465e-05 
      -1.94273419e-07       6.33104652e-06      -1.30290952e-05 
      -5.58465231e-07       6.33104606e-06      -1.30323130e-05 
       1.92838574e-07       6.33426580e-06      -1.30323150e-05 
       5.57030385e-07       6.33426626e-06      -1.30290971e-05 
      -1.94273419e-07       6.33104652e-06      -1.30290952e-05 
      -5.58465231e-07       6.33104606e-06      -1.30323130e-05 
       1.92838574e-07       6.33426580e-06      -1.30323150e-05 
       5.57030385e-07       6.33426626e-06      -1.30290971e-05 
      -2.00686134e-07       6.84641838e-06      -1.40925083e-05 
      -5.76676320e-07       6.84641789e-06      -1.40958451e-05 
       1.99215541e-07       6.84975679e-06      -1.40958472e-05 
       5.75205727e-07       6.84975728e-06      -1.40925104e-05 
      -2.00686134e-07       6.84641838e-06      -1.40925083e-05 
      -5.76676320e-07       6.84641789e-06      -1.40958451e-05 
       1.99215541e-07       6.84975679e-06      -1.40958472e-05 
       5.75205727e-07       6.84975728e-06      -1.40925104e-05 
      -2.06947139e-07       7.37801175e-06      -1.51897425e-05 
      -5.94435319e-07       7.37801122e-06      -1.51931984e-05 
       2.05440334e-07       7.38146929e-06      -1.51932006e-05 
       5.92928514e-07       7.38146981e-06      -1.51897447e-05 
      -2.06947139e-07       7.37801175e-06      -1.51897425e-05 
      -5.94435319e-07       7.37801122e-06      -1.51931984e-05 
       2.05440334e-07       7.38146929e-06      -1.51932006e-05 
       5.92928514e-07       7.38146981e-06      -1.51897447e-05 
      -2.13056425e-07       7.92540830e-06      -1.63199563e-05 
      -6.11742219e-07       7.92540775e-06      -1.63235312e-05 
       2.11512959e-07       7.92898497e-06      -1.63235336e-05 
       6.10198753e-07       7.92898553e-06      -1.63199586e-05 
      -2.13056425e-07       7.92540830e-06      -1.63199563e-05 
      -6.11742219e-07       7.92540775e-06      -1.63235312e-05 
       2.11512959e-07       7.92898497e-06      -1.63235336e-05 
       6.10198753e-07       7.92898553e-06      -1.63199586e-05 
      -2.19013989e-07       8.48818974e-06      -1.74823082e-05 
      -6.28597016e-07       8.48818915e-06      -1.74860021e-05 
       2.17433421e-07       8.49188554e-06      -1.74860046e-05 
       6.27016448e-07       8.49188612e-06      -1.74823106e-05 
      -2.19013989e-07       8.48818974e-06      -1.74823082e-05 
      -6.28597016e-07       8.48818915e-06      -1.74860021e-05 
       2.17433421e-07       8.49188554e-06      -1.74860046e-05 
       6.27016448e-07       8.49188612e-06      -1.74823106e-05 
      -2.24819822e-07       9.06593773e-06      -1.86759566e-05 
      -6.44999703e-07       9.06593711e-06      -1.86797696e-05 
       2.23201727e-07       9.06975266e-06      -1.86797722e-05 
       6.43381608e-07       9.06975327e-06      -1.86759592e-05 
      -2.24819822e-07       9.06593773e-06      -1.86759566e-05 
      -6.44999703e-07       9.06593711e-06      -1.86797696e-05 
       2.23201727e-07       9.06975266e-06      -1.86797722e-05 
       6.43381608e-07       9.06975327e-06      -1.86759592e-05 
      -2.30473923e-07       9.65823396e-06      -1.99000600e-05 
      -6.60950277e-07       9.65823332e-06      -1.99039921e-05 
       2.28817880e-07       9.66216802e-06      -1.99039948e-05 
       6.59294234e-07       9.66216867e-06      -1.99000628e-05 
      -2.30473923e-07       9.65823396e-06      -1.99000600e-05 
      -6.60950277e-07       9.65823332e-06      -1.99039921e-05 
       2.28817880e-07       9.66216802e-06      -1.99039948e-05 
       6.59294234e-07       9.66216867e-06      -1.99000628e-05 
      -2.35976282e-07       1.02646601e-05      -2.11537770e-05 
      -6.76448728e-07       1.02646594e-05      -2.11578281e-05 
       2.34281890e-07       1.02687133e-05      -2.11578310e-05 
       6.74754335e-07       1.02687140e-05      -2.11537799e-05 
      -2.35976282e-07       1.02646601e-05      -2.11537770e-05 
      -6.76448728e-07       1.02646594e-05      -2.11578281e-05 
       2.34281890e-07       1.02687133e-05      -2.11578310e-05 
       6.74754336e-07       1.02687140e-05      -2.11537799e-05 
      -2.41329148e-07       1.08848151e-05      -2.24362918e-05 
      -6.91517215e-07       1.08848144e-05      -2.24404459e-05 
       2.39609865e-07       1.08889715e-05      -2.24404489e-05 
       6.89797933e-07       1.08889722e-05      -2.24362948e-05 
      -2.41329148e-07       1.08848151e-05      -2.24362918e-05 
      -6.91517215e-07       1.08848144e-05      -2.24404459e-05 
       2.39609865e-07       1.08889715e-05      -2.24404489e-05 
       6.89797933e-07       1.08889722e-05      -2.24362948e-05 
      -2.46548590e-07       1.15183189e-05      -2.37468435e-05 
      -7.06191750e-07       1.15183181e-05      -2.37511007e-05 
       2.44803935e-07       1.15225784e-05      -2.37511039e-05 
       7.04447094e-07       1.15225791e-05      -2.37468467e-05 
      -2.46548590e-07       1.15183189e-05      -2.37468435e-05 
      -7.06191750e-07       1.15183181e-05      -2.37511007e-05 
       2.44803935e-07       1.15225784e-05      -2.37511039e-05 
       7.04447094e-07       1.15225791e-05      -2.37468467e-05 
      -2.51634603e-07       1.21648086e-05      -2.50846972e-05 
      -7.20472324e-07       1.21648078e-05      -2.50890575e-05 
       2.49864106e-07       1.21691713e-05      -2.50890607e-05 
       7.18701828e-07       1.21691721e-05      -2.50847004e-05 
      -2.51634603e-07       1.21648086e-05      -2.50846972e-05 
      -7.20472324e-07       1.21648078e-05      -2.50890575e-05 
       2.49864106e-07       1.21691713e-05      -2.50890607e-05 
       7.18701828e-07       1.21691721e-05      -2.50847004e-05 
      -2.56587180e-07       1.28239214e-05      -2.64491176e-05 
      -7.34358936e-07       1.28239206e-05      -2.64535810e-05 
       2.54790383e-07       1.28283873e-05      -2.64535844e-05 
       7.32562139e-07       1.28283881e-05      -2.64491210e-05 
      -2.56587180e-07       1.28239214e-05      -2.64491176e-05 
      -7.34358936e-07       1.28239206e-05      -2.64535810e-05 
       2.54790383e-07       1.28283873e-05      -2.64535844e-05 
       7.32562139e-07       1.28283881e-05      -2.64491210e-05 
      -2.61406314e-07       1.34952946e-05      -2.78393697e-05 
      -7.47851577e-07       1.34952938e-05      -2.78439361e-05 
       2.59582771e-07       1.34998636e-05      -2.78439397e-05 
       7.46028034e-07       1.34998645e-05      -2.78393732e-05 
      -2.61406314e-07       1.34952946e-05      -2.78393697e-05 
      -7.47851577e-07       1.34952938e-05      -2.78439361e-05 
       2.59582771e-07       1.34998636e-05      -2.78439397e-05 
       7.46028034e-07       1.34998645e-05      -2.78393732e-05 
      -2.66091999e-07       1.41785652e-05      -2.92547183e-05 
      -7.60950240e-07       1.41785644e-05      -2.92593879e-05 
       2.64241280e-07       1.41832375e-05      -2.92593915e-05 
       7.59099520e-07       1.41832383e-05      -2.92547220e-05 
      -2.66091999e-07       1.41785652e-05      -2.92547183e-05 
      -7.60950240e-07       1.41785644e-05      -2.92593879e-05 
       2.64241280e-07       1.41832375e-05      -2.92593915e-05 
       7.59099520e-07       1.41832383e-05      -2.92547220e-05 
      -2.70644230e-07       1.48733706e-05      -3.06944285e-05 
      -7.73654920e-07       1.48733697e-05      -3.06992011e-05 
       2.68765914e-07       1.48781460e-05      -3.06992049e-05 
       7.71776604e-07       1.48781469e-05      -3.06944323e-05 
      -2.70644230e-07       1.48733706e-05      -3.06944285e-05 
      -7.73654920e-07       1.48733697e-05      -3.06992011e-05 
       2.68765914e-07       1.48781460e-05      -3.06992049e-05 
       7.71776604e-07       1.48781469e-05      -3.06944323e-05 
      -2.75062996e-07       1.55793478e-05      -3.21577650e-05 
      -7.85965607e-07       1.55793469e-05      -3.21626407e-05 
       2.73156682e-07       1.55842263e-05      -3.21626446e-05 
       7.84059292e-07       1.55842273e-05      -3.21577689e-05 
      -2.75062996e-07       1.55793478e-05      -3.21577650e-05 
      -7.85965607e-07       1.55793469e-05      -3.21626407e-05 