# vtk DataFile Version 2.0
./output/onsasExample_BladeCantileverBeamPitch_windVel3DDynamic 3D/onsasExample_BladeCantileverBeamPitch_windVel3DDynamic 3D_0290.vtk
ASCII
DATASET UNSTRUCTURED_GRID

POINTS 800 float
      -3.824419e-23      -7.180703e-02      -7.180703e-02 
      -3.366046e-23       7.180703e-02      -7.180703e-02 
       3.824419e-23       7.180703e-02       7.180703e-02 
       3.366046e-23      -7.180703e-02       7.180703e-02 
       2.000000e-01      -7.180702e-02      -7.180706e-02 
       2.000000e-01       7.180705e-02      -7.180706e-02 
       2.000000e-01       7.180705e-02       7.180700e-02 
       2.000000e-01      -7.180702e-02       7.180700e-02 
       2.000000e-01      -7.180702e-02      -7.180706e-02 
       2.000000e-01       7.180705e-02      -7.180706e-02 
       2.000000e-01       7.180705e-02       7.180700e-02 
       2.000000e-01      -7.180702e-02       7.180700e-02 
       4.000000e-01      -7.180698e-02      -7.180715e-02 
       3.999999e-01       7.180709e-02      -7.180715e-02 
       4.000000e-01       7.180709e-02       7.180692e-02 
       4.000001e-01      -7.180698e-02       7.180692e-02 
       4.000000e-01      -7.180698e-02      -7.180715e-02 
       3.999999e-01       7.180709e-02      -7.180715e-02 
       4.000000e-01       7.180709e-02       7.180692e-02 
       4.000001e-01      -7.180698e-02       7.180692e-02 
       6.000000e-01      -7.180691e-02      -7.180729e-02 
       5.999999e-01       7.180716e-02      -7.180729e-02 
       6.000000e-01       7.180716e-02       7.180677e-02 
       6.000001e-01      -7.180691e-02       7.180677e-02 
       6.000000e-01      -7.180691e-02      -7.180729e-02 
       5.999999e-01       7.180716e-02      -7.180729e-02 
       6.000000e-01       7.180716e-02       7.180677e-02 
       6.000001e-01      -7.180691e-02       7.180677e-02 
       8.000000e-01      -7.180682e-02      -7.180749e-02 
       7.999999e-01       7.180725e-02      -7.180749e-02 
       8.000000e-01       7.180725e-02       7.180658e-02 
       8.000001e-01      -7.180681e-02       7.180658e-02 
       8.000000e-01      -7.180682e-02      -7.180749e-02 
       7.999999e-01       7.180725e-02      -7.180749e-02 
       8.000000e-01       7.180725e-02       7.180658e-02 
       8.000001e-01      -7.180681e-02       7.180658e-02 
       9.999999e-01      -7.180669e-02      -7.180774e-02 
       9.999999e-01       7.180737e-02      -7.180774e-02 
       1.000000e+00       7.180737e-02       7.180632e-02 
       1.000000e+00      -7.180669e-02       7.180632e-02 
       9.999999e-01      -7.180669e-02      -7.180774e-02 
       9.999999e-01       7.180737e-02      -7.180774e-02 
       1.000000e+00       7.180737e-02       7.180632e-02 
       1.000000e+00      -7.180669e-02       7.180632e-02 
       1.200000e+00      -7.180655e-02      -7.180805e-02 
       1.200000e+00       7.180752e-02      -7.180805e-02 
       1.200000e+00       7.180752e-02       7.180602e-02 
       1.200000e+00      -7.180655e-02       7.180602e-02 
       1.200000e+00      -7.180655e-02      -7.180805e-02 
       1.200000e+00       7.180752e-02      -7.180805e-02 
       1.200000e+00       7.180752e-02       7.180602e-02 
       1.200000e+00      -7.180655e-02       7.180602e-02 
       1.400000e+00      -7.180638e-02      -7.180841e-02 
       1.400000e+00       7.180769e-02      -7.180841e-02 
       1.400000e+00       7.180769e-02       7.180566e-02 
       1.400000e+00      -7.180638e-02       7.180566e-02 
       1.400000e+00      -7.180638e-02      -7.180841e-02 
       1.400000e+00       7.180769e-02      -7.180841e-02 
       1.400000e+00       7.180769e-02       7.180566e-02 
       1.400000e+00      -7.180638e-02       7.180566e-02 
       1.600000e+00      -7.180618e-02      -7.180882e-02 
       1.600000e+00       7.180788e-02      -7.180882e-02 
       1.600000e+00       7.180788e-02       7.180525e-02 
       1.600000e+00      -7.180618e-02       7.180525e-02 
       1.600000e+00      -7.180618e-02      -7.180882e-02 
       1.600000e+00       7.180788e-02      -7.180882e-02 
       1.600000e+00       7.180788e-02       7.180525e-02 
       1.600000e+00      -7.180618e-02       7.180525e-02 
       1.800000e+00      -7.180596e-02      -7.180928e-02 
       1.800000e+00       7.180810e-02      -7.180928e-02 
       1.800000e+00       7.180810e-02       7.180479e-02 
       1.800000e+00      -7.180596e-02       7.180479e-02 
       1.800000e+00      -7.180596e-02      -7.180928e-02 
       1.800000e+00       7.180810e-02      -7.180928e-02 
       1.800000e+00       7.180810e-02       7.180479e-02 
       1.800000e+00      -7.180596e-02       7.180479e-02 
       2.000000e+00      -7.180572e-02      -7.180979e-02 
       2.000000e+00       7.180834e-02      -7.180979e-02 
       2.000000e+00       7.180835e-02       7.180428e-02 
       2.000000e+00      -7.180572e-02       7.180428e-02 
       2.000000e+00      -7.180572e-02      -7.180979e-02 
       2.000000e+00       7.180834e-02      -7.180979e-02 
       2.000000e+00       7.180835e-02       7.180428e-02 
       2.000000e+00      -7.180572e-02       7.180428e-02 
       2.200000e+00      -7.180546e-02      -7.181034e-02 
       2.200000e+00       7.180861e-02      -7.181034e-02 
       2.200000e+00       7.180861e-02       7.180372e-02 
       2.200000e+00      -7.180546e-02       7.180372e-02 
       2.200000e+00      -7.180546e-02      -7.181034e-02 
       2.200000e+00       7.180861e-02      -7.181034e-02 
       2.200000e+00       7.180861e-02       7.180372e-02 
       2.200000e+00      -7.180546e-02       7.180372e-02 
       2.400000e+00      -7.180517e-02      -7.181095e-02 
       2.400000e+00       7.180890e-02      -7.181095e-02 
       2.400000e+00       7.180890e-02       7.180312e-02 
       2.400000e+00      -7.180517e-02       7.180312e-02 
       2.400000e+00      -7.180517e-02      -7.181095e-02 
       2.400000e+00       7.180890e-02      -7.181095e-02 
       2.400000e+00       7.180890e-02       7.180312e-02 
       2.400000e+00      -7.180517e-02       7.180312e-02 
       2.600000e+00      -7.180486e-02      -7.181160e-02 
       2.600000e+00       7.180920e-02      -7.181160e-02 
       2.600000e+00       7.180921e-02       7.180247e-02 
       2.600000e+00      -7.180486e-02       7.180247e-02 
       2.600000e+00      -7.180486e-02      -7.181160e-02 
       2.600000e+00       7.180920e-02      -7.181160e-02 
       2.600000e+00       7.180921e-02       7.180247e-02 
       2.600000e+00      -7.180486e-02       7.180247e-02 
       2.800000e+00      -7.180453e-02      -7.181229e-02 
       2.800000e+00       7.180953e-02      -7.181229e-02 
       2.800000e+00       7.180954e-02       7.180177e-02 
       2.800000e+00      -7.180453e-02       7.180178e-02 
       2.800000e+00      -7.180453e-02      -7.181229e-02 
       2.800000e+00       7.180953e-02      -7.181229e-02 
       2.800000e+00       7.180954e-02       7.180177e-02 
       2.800000e+00      -7.180453e-02       7.180178e-02 
       3.000000e+00      -7.180418e-02      -7.181303e-02 
       3.000000e+00       7.180989e-02      -7.181303e-02 
       3.000000e+00       7.180989e-02       7.180104e-02 
       3.000000e+00      -7.180418e-02       7.180104e-02 
       3.000000e+00      -7.180418e-02      -7.181303e-02 
       3.000000e+00       7.180989e-02      -7.181303e-02 
       3.000000e+00       7.180989e-02       7.180104e-02 
       3.000000e+00      -7.180418e-02       7.180104e-02 
       3.200000e+00      -7.180381e-02      -7.181381e-02 
       3.200000e+00       7.181026e-02      -7.181381e-02 
       3.200000e+00       7.181026e-02       7.180025e-02 
       3.200000e+00      -7.180381e-02       7.180026e-02 
       3.200000e+00      -7.180381e-02      -7.181381e-02 
       3.200000e+00       7.181026e-02      -7.181381e-02 
       3.200000e+00       7.181026e-02       7.180025e-02 
       3.200000e+00      -7.180381e-02       7.180026e-02 
       3.400000e+00      -7.180342e-02      -7.181463e-02 
       3.400000e+00       7.181065e-02      -7.181464e-02 
       3.400000e+00       7.181065e-02       7.179943e-02 
       3.400000e+00      -7.180342e-02       7.179943e-02 
       3.400000e+00      -7.180342e-02      -7.181463e-02 
       3.400000e+00       7.181065e-02      -7.181464e-02 
       3.400000e+00       7.181065e-02       7.179943e-02 
       3.400000e+00      -7.180342e-02       7.179943e-02 
       3.600000e+00      -7.180301e-02      -7.181550e-02 
       3.600000e+00       7.181106e-02      -7.181550e-02 
       3.600000e+00       7.181106e-02       7.179856e-02 
       3.600000e+00      -7.180300e-02       7.179857e-02 
       3.600000e+00      -7.180301e-02      -7.181550e-02 
       3.600000e+00       7.181106e-02      -7.181550e-02 
       3.600000e+00       7.181106e-02       7.179856e-02 
       3.600000e+00      -7.180300e-02       7.179857e-02 
       3.800000e+00      -7.180258e-02      -7.181640e-02 
       3.800000e+00       7.181149e-02      -7.181641e-02 
       3.800000e+00       7.181149e-02       7.179766e-02 
       3.800000e+00      -7.180258e-02       7.179766e-02 
       3.800000e+00      -7.180258e-02      -7.181640e-02 
       3.800000e+00       7.181149e-02      -7.181641e-02 
       3.800000e+00       7.181149e-02       7.179766e-02 
       3.800000e+00      -7.180258e-02       7.179766e-02 
       4.000000e+00      -7.180213e-02      -7.181735e-02 
       3.999999e+00       7.181194e-02      -7.181735e-02 
       4.000000e+00       7.181194e-02       7.179671e-02 
       4.000001e+00      -7.180213e-02       7.179672e-02 
       4.000000e+00      -7.180213e-02      -7.181735e-02 
       3.999999e+00       7.181194e-02      -7.181735e-02 
       4.000000e+00       7.181194e-02       7.179671e-02 
       4.000001e+00      -7.180213e-02       7.179672e-02 
       4.200000e+00      -7.180166e-02      -7.181833e-02 
[...]
POINT_DATA       800 
VECTORS Displacements float
      -3.82441852e-23       0.00000000e+00       0.00000000e+00 
      -3.36604615e-23       0.00000000e+00       0.00000000e+00 
       3.82441852e-23       0.00000000e+00       0.00000000e+00 
       3.36604615e-23       0.00000000e+00       0.00000000e+00 
      -1.09445516e-08       1.38343901e-08      -2.90636824e-08 
      -3.08582788e-08       1.38343887e-08      -2.92151706e-08 
       1.08620116e-08       1.39858827e-08      -2.92151766e-08 
       3.07757388e-08       1.39858840e-08      -2.90636885e-08 
      -1.09445516e-08       1.38343901e-08      -2.90636824e-08 
      -3.08582788e-08       1.38343887e-08      -2.92151706e-08 
       1.08620116e-08       1.39858827e-08      -2.92151766e-08 
       3.07757388e-08       1.39858840e-08      -2.90636885e-08 
      -2.16946650e-08       5.51370817e-08      -1.15693034e-07 
      -6.11430123e-08       5.51370763e-08      -1.15996005e-07 
       2.15293905e-08       5.54400697e-08      -1.15996029e-07 
       6.09777377e-08       5.54400751e-08      -1.15693058e-07 
      -2.16946650e-08       5.51370817e-08      -1.15693034e-07 
      -6.11430123e-08       5.51370763e-08      -1.15996005e-07 
       2.15293905e-08       5.54400697e-08      -1.15996029e-07 
       6.09777377e-08       5.54400751e-08      -1.15693058e-07 
      -3.22503384e-08       1.23380122e-07      -2.58818275e-07 
      -9.08541985e-08       1.23380110e-07      -2.59272723e-07 
       3.20021384e-08       1.23834608e-07      -2.59272775e-07 
       9.06059987e-08       1.23834620e-07      -2.58818327e-07 
      -3.22503384e-08       1.23380122e-07      -2.58818275e-07 
      -9.08541985e-08       1.23380110e-07      -2.59272723e-07 
       3.20021384e-08       1.23834608e-07      -2.59272775e-07 
       9.06059987e-08       1.23834620e-07      -2.58818327e-07 
      -4.26115699e-08       2.18035559e-07      -4.57369623e-07 
      -1.19991836e-07       2.18035538e-07      -4.57975543e-07 
       4.22802573e-08       2.18641546e-07      -4.57975635e-07 
       1.19660523e-07       2.18641567e-07      -4.57369714e-07 
      -4.26115699e-08       2.18035559e-07      -4.57369623e-07 
      -1.19991836e-07       2.18035538e-07      -4.57975543e-07 
       4.22802573e-08       2.18641546e-07      -4.57975635e-07 
       1.19660523e-07       2.18641567e-07      -4.57369714e-07 
      -5.27783579e-08       3.38575439e-07      -7.10277298e-07 
      -1.48555923e-07       3.38575407e-07      -7.11034686e-07 
       5.23637489e-08       3.39332930e-07      -7.11034826e-07 
       1.48141314e-07       3.39332962e-07      -7.10277438e-07 
      -5.27783579e-08       3.38575439e-07      -7.10277298e-07 
      -1.48555923e-07       3.38575407e-07      -7.11034686e-07 
       5.23637489e-08       3.39332930e-07      -7.11034826e-07 
       1.48141314e-07       3.39332962e-07      -7.10277438e-07 
      -6.27507002e-08       4.84471811e-07      -1.01647152e-06 
      -1.76546457e-07       4.84471766e-07      -1.01738037e-06 
       6.22526148e-08       4.85380807e-07      -1.01738057e-06 
       1.76048371e-07       4.85380852e-07      -1.01647172e-06 
      -6.27507002e-08       4.84471811e-07      -1.01647152e-06 
      -1.76546457e-07       4.84471766e-07      -1.01738037e-06 
       6.22526148e-08       4.85380807e-07      -1.01738057e-06 
       1.76048371e-07       4.85380852e-07      -1.01647172e-06 
      -7.25285954e-08       6.55196721e-07      -1.37488250e-06 
      -2.03963436e-07       6.55196661e-07      -1.37594281e-06 
       7.19468571e-08       6.56257225e-07      -1.37594308e-06 
       2.03381698e-07       6.56257285e-07      -1.37488277e-06 
      -7.25285954e-08       6.55196721e-07      -1.37488250e-06 
      -2.03963436e-07       6.55196661e-07      -1.37594281e-06 
       7.19468571e-08       6.56257225e-07      -1.37594308e-06 
       2.03381698e-07       6.56257285e-07      -1.37488277e-06 
      -8.21120409e-08       8.50222217e-07      -1.78444047e-06 
      -2.30806860e-07       8.50222140e-07      -1.78565224e-06 
       8.14464778e-08       8.51434230e-07      -1.78565258e-06 
       2.30141296e-07       8.51434307e-07      -1.78444081e-06 
      -8.21120409e-08       8.50222217e-07      -1.78444047e-06 
      -2.30806860e-07       8.50222140e-07      -1.78565224e-06 
       8.14464778e-08       8.51434230e-07      -1.78565258e-06 
       2.30141296e-07       8.51434307e-07      -1.78444081e-06 
      -9.15010361e-08       1.06902035e-06      -2.24407565e-06 
      -2.57076725e-07       1.06902025e-06      -2.24543886e-06 
       9.07514783e-08       1.07038387e-06      -2.24543929e-06 
       2.56327167e-07       1.07038397e-06      -2.24407607e-06 
      -9.15010361e-08       1.06902035e-06      -2.24407565e-06 
      -2.57076725e-07       1.06902025e-06      -2.24543886e-06 
       9.07514783e-08       1.07038387e-06      -2.24543929e-06 
       2.56327167e-07       1.07038397e-06      -2.24407607e-06 
      -1.00695578e-07       1.31106316e-06      -2.75271824e-06 
      -2.82773030e-07       1.31106304e-06      -2.75423291e-06 
       9.98618606e-08       1.31257819e-06      -2.75423342e-06 
       2.81939313e-07       1.31257831e-06      -2.75271875e-06 
      -1.00695578e-07       1.31106316e-06      -2.75271824e-06 
      -2.82773030e-07       1.31106304e-06      -2.75423291e-06 
       9.98618610e-08       1.31257819e-06      -2.75423342e-06 
       2.81939313e-07       1.31257831e-06      -2.75271875e-06 
      -1.09688813e-07       1.57584003e-06      -3.30932358e-06 
      -3.07908897e-07       1.57583989e-06      -3.31097372e-06 
       1.08801078e-07       1.57749061e-06      -3.31097432e-06 
       3.07021163e-07       1.57749075e-06      -3.30932418e-06 
      -1.09688813e-07       1.57584003e-06      -3.30932358e-06 
      -3.07908897e-07       1.57583989e-06      -3.31097372e-06 
       1.08801078e-07       1.57749061e-06      -3.31097432e-06 
       3.07021163e-07       1.57749075e-06      -3.30932418e-06 
      -1.18504069e-07       1.86286086e-06      -3.91289783e-06 
      -3.32526976e-07       1.86286070e-06      -3.91468344e-06 
       1.17561884e-07       1.86464699e-06      -3.91468415e-06 
       3.31584792e-07       1.86464715e-06      -3.91289853e-06 
      -1.18504069e-07       1.86286086e-06      -3.91289783e-06 
      -3.32526976e-07       1.86286070e-06      -3.91468344e-06 
       1.17561884e-07       1.86464699e-06      -3.91468415e-06 
       3.31584792e-07       1.86464715e-06      -3.91289853e-06 
      -1.27141345e-07       2.17165242e-06      -4.56247145e-06 
      -3.56627265e-07       2.17165224e-06      -4.56439254e-06 
       1.26144282e-07       2.17357410e-06      -4.56439335e-06 
       3.55630203e-07       2.17357428e-06      -4.56247226e-06 
      -1.27141345e-07       2.17165242e-06      -4.56247145e-06 
      -3.56627265e-07       2.17165224e-06      -4.56439254e-06 
       1.26144282e-07       2.17357410e-06      -4.56439335e-06 
       3.55630203e-07       2.17357428e-06      -4.56247226e-06 
      -1.35600634e-07       2.50174149e-06      -5.25707491e-06 
      -3.80209759e-07       2.50174128e-06      -5.25913146e-06 
       1.34548277e-07       2.50379871e-06      -5.25913238e-06 
       3.79157402e-07       2.50379892e-06      -5.25707583e-06 
      -1.35600634e-07       2.50174149e-06      -5.25707491e-06 
      -3.80209759e-07       2.50174128e-06      -5.25913146e-06 
       1.34548277e-07       2.50379871e-06      -5.25913238e-06 
       3.79157402e-07       2.50379892e-06      -5.25707583e-06 
      -1.43881933e-07       2.85265484e-06      -5.99573865e-06 
      -4.03274453e-07       2.85265461e-06      -5.99793067e-06 
       1.42773873e-07       2.85484761e-06      -5.99793171e-06 
       4.02166393e-07       2.85484785e-06      -5.99573969e-06 
      -1.43881933e-07       2.85265484e-06      -5.99573865e-06 
      -4.03274453e-07       2.85265461e-06      -5.99793067e-06 
       1.42773873e-07       2.85484761e-06      -5.99793171e-06 
       4.02166393e-07       2.85484785e-06      -5.99573969e-06 
      -1.51985236e-07       3.22391925e-06      -6.77749316e-06 
      -4.25821343e-07       3.22391899e-06      -6.77982064e-06 
       1.50821074e-07       3.22624757e-06      -6.77982180e-06 
       4.24657181e-07       3.22624783e-06      -6.77749431e-06 
      -1.51985236e-07       3.22391925e-06      -6.77749316e-06 
      -4.25821343e-07       3.22391899e-06      -6.77982064e-06 
       1.50821074e-07       3.22624757e-06      -6.77982180e-06 
       4.24657181e-07       3.22624783e-06      -6.77749431e-06 
      -1.59910540e-07       3.61506148e-06      -7.60136887e-06 
      -4.47850423e-07       3.61506119e-06      -7.60383181e-06 
       1.58689886e-07       3.61752536e-06      -7.60383309e-06 
       4.46629769e-07       3.61752564e-06      -7.60137015e-06 
      -1.59910540e-07       3.61506148e-06      -7.60136887e-06 
      -4.47850423e-07       3.61506119e-06      -7.60383181e-06 
       1.58689886e-07       3.61752536e-06      -7.60383309e-06 
       4.46629769e-07       3.61752564e-06      -7.60137015e-06 
      -1.67657840e-07       4.02560832e-06      -8.46639625e-06 
      -4.69361690e-07       4.02560801e-06      -8.46899465e-06 
       1.66380314e-07       4.02820775e-06      -8.46899606e-06 
       4.68084164e-07       4.02820806e-06      -8.46639765e-06 
      -1.67657840e-07       4.02560832e-06      -8.46639625e-06 
      -4.69361690e-07       4.02560801e-06      -8.46899465e-06 
       1.66380314e-07       4.02820775e-06      -8.46899606e-06 
       4.68084164e-07       4.02820806e-06      -8.46639765e-06 
      -1.75227131e-07       4.45508654e-06      -9.37160576e-06 
      -4.90355139e-07       4.45508620e-06      -9.37433962e-06 
       1.73892360e-07       4.45782152e-06      -9.37434116e-06 
       4.89020369e-07       4.45782187e-06      -9.37160729e-06 
      -1.75227131e-07       4.45508654e-06      -9.37160576e-06 
      -4.90355139e-07       4.45508620e-06      -9.37433962e-06 
       1.73892360e-07       4.45782152e-06      -9.37434116e-06 
       4.89020369e-07       4.45782187e-06      -9.37160729e-06 
      -1.82618408e-07       4.90302291e-06      -1.03160279e-05 
      -5.10830766e-07       4.90302254e-06      -1.03188972e-05 
       1.81226030e-07       4.90589345e-06      -1.03188988e-05 
       5.09438387e-07       4.90589382e-06      -1.03160295e-05 
      -1.82618408e-07       4.90302291e-06      -1.03160279e-05 
      -5.10830766e-07       4.90302254e-06      -1.03188972e-05 
       1.81226030e-07       4.90589345e-06      -1.03188988e-05 
       5.09438387e-07       4.90589382e-06      -1.03160295e-05 
      -1.89828714e-07       5.36896126e-06      -1.12987170e-05 
      -5.30805142e-07       5.36896085e-06      -1.13017058e-05 
       1.88399844e-07       5.37195139e-06      -1.13017076e-05 
       5.29376273e-07       5.37195179e-06      -1.12987188e-05 
      -1.89828714e-07       5.36896126e-06      -1.12987170e-05 
      -5.30805142e-07       5.36896085e-06      -1.13017058e-05 
       1.88399844e-07       5.37195139e-06      -1.13017076e-05 
       5.29376273e-07       5.37195179e-06      -1.12987188e-05 
      -1.96877854e-07       5.85246572e-06      -1.23187791e-05 
      -5.50317639e-07       5.85246529e-06      -1.23218874e-05 
       1.95411973e-07       5.85557545e-06      -1.23218893e-05 
       5.48851759e-07       5.85557588e-06      -1.23187810e-05 
      -1.96877854e-07       5.85246572e-06      -1.23187791e-05 
      -5.50317639e-07       5.85246529e-06      -1.23218874e-05 
       1.95411973e-07       5.85557545e-06      -1.23218893e-05 
       5.48851759e-07       5.85557588e-06      -1.23187810e-05 
      -2.03765824e-07       6.35311753e-06      -1.33753457e-05 
      -5.69368250e-07       6.35311706e-06      -1.33785735e-05 
       2.02262424e-07       6.35634685e-06      -1.33785756e-05 
       5.67864850e-07       6.35634732e-06      -1.33753478e-05 
      -2.03765824e-07       6.35311753e-06      -1.33753457e-05 
      -5.69368250e-07       6.35311706e-06      -1.33785735e-05 
       2.02262424e-07       6.35634685e-06      -1.33785756e-05 
       5.67864850e-07       6.35634732e-06      -1.33753478e-05 
      -2.10492618e-07       6.87049789e-06      -1.44675485e-05 
      -5.87956971e-07       6.87049740e-06      -1.44708959e-05 
       2.08951199e-07       6.87384682e-06      -1.44708981e-05 
       5.86415553e-07       6.87384732e-06      -1.44675507e-05 
      -2.10492618e-07       6.87049789e-06      -1.44675485e-05 
      -5.87956971e-07       6.87049740e-06      -1.44708959e-05 
       2.08951199e-07       6.87384682e-06      -1.44708981e-05 
       5.86415553e-07       6.87384732e-06      -1.44675507e-05 
      -2.17058228e-07       7.40418804e-06      -1.55945191e-05 
      -6.06083794e-07       7.40418751e-06      -1.55979860e-05 
       2.15478309e-07       7.40765657e-06      -1.55979883e-05 
       6.04503874e-07       7.40765709e-06      -1.55945215e-05 
      -2.17058228e-07       7.40418804e-06      -1.55945191e-05 
      -6.06083794e-07       7.40418751e-06      -1.55979860e-05 
       2.15478309e-07       7.40765657e-06      -1.55979883e-05 
       6.04503874e-07       7.40765709e-06      -1.55945215e-05 
      -2.23462651e-07       7.95376918e-06      -1.67553891e-05 
      -6.23748713e-07       7.95376862e-06      -1.67589755e-05 
       2.21843756e-07       7.95735731e-06      -1.67589780e-05 
       6.22129818e-07       7.95735787e-06      -1.67553916e-05 
      -2.23462651e-07       7.95376918e-06      -1.67553891e-05 
      -6.23748713e-07       7.95376862e-06      -1.67589755e-05 
       2.21843756e-07       7.95735731e-06      -1.67589780e-05 
       6.22129818e-07       7.95735787e-06      -1.67553916e-05 
      -2.29705878e-07       8.51882254e-06      -1.79492901e-05 
      -6.40951723e-07       8.51882195e-06      -1.79529960e-05 
       2.28047548e-07       8.52253026e-06      -1.79529986e-05 
       6.39293392e-07       8.52253085e-06      -1.79492928e-05 
      -2.29705878e-07       8.51882254e-06      -1.79492901e-05 
      -6.40951723e-07       8.51882195e-06      -1.79529960e-05 
       2.28047548e-07       8.52253026e-06      -1.79529986e-05 
       6.39293392e-07       8.52253085e-06      -1.79492928e-05 
      -2.35787903e-07       9.09892933e-06      -1.91753538e-05 
      -6.57692815e-07       9.09892871e-06      -1.91791791e-05 
       2.34089693e-07       9.10275665e-06      -1.91791819e-05 
       6.55994604e-07       9.10275727e-06      -1.91753565e-05 
      -2.35787903e-07       9.09892933e-06      -1.91753538e-05 
      -6.57692815e-07       9.09892871e-06      -1.91791791e-05 
       2.34089693e-07       9.10275665e-06      -1.91791819e-05 
       6.55994604e-07       9.10275727e-06      -1.91753565e-05 
      -2.41708722e-07       9.69367077e-06      -2.04327116e-05 
      -6.73971987e-07       9.69367012e-06      -2.04366564e-05 
       2.39970193e-07       9.69761769e-06      -2.04366593e-05 
       6.72233457e-07       9.69761834e-06      -2.04327145e-05 
      -2.41708722e-07       9.69367077e-06      -2.04327116e-05 
      -6.73971987e-07       9.69367012e-06      -2.04366564e-05 
       2.39970193e-07       9.69761769e-06      -2.04366593e-05 
       6.72233457e-07       9.69761834e-06      -2.04327145e-05 
      -2.47468328e-07       1.03026281e-05      -2.17204953e-05 
      -6.89789231e-07       1.03026274e-05      -2.17245596e-05 
       2.45689057e-07       1.03066946e-05      -2.17245627e-05 
       6.88009958e-07       1.03066953e-05      -2.17204983e-05 
      -2.47468328e-07       1.03026281e-05      -2.17204953e-05 
      -6.89789231e-07       1.03026274e-05      -2.17245596e-05 
       2.45689057e-07       1.03066946e-05      -2.17245627e-05 
       6.88009959e-07       1.03066953e-05      -2.17204983e-05 
      -2.53067578e-07       1.09253994e-05      -2.30378605e-05 
      -7.05164863e-07       1.09253987e-05      -2.30420284e-05 
       2.51261599e-07       1.09295696e-05      -2.30420316e-05 
       7.03358885e-07       1.09295703e-05      -2.30378637e-05 
      -2.53067578e-07       1.09253994e-05      -2.30378605e-05 
      -7.05164863e-07       1.09253987e-05      -2.30420284e-05 
       2.51261599e-07       1.09295696e-05      -2.30420316e-05 
       7.03358885e-07       1.09295703e-05      -2.30378637e-05 
      -2.58523581e-07       1.15616035e-05      -2.43840167e-05 
      -7.20135783e-07       1.15616028e-05      -2.43882881e-05 
       2.56690390e-07       1.15658774e-05      -2.43882914e-05 
       7.18302592e-07       1.15658781e-05      -2.43840200e-05 
      -2.58523581e-07       1.15616035e-05      -2.43840167e-05 
      -7.20135783e-07       1.15616028e-05      -2.43882881e-05 
       2.56690390e-07       1.15658774e-05      -2.43882914e-05 
       7.18302592e-07       1.15658781e-05      -2.43840200e-05 
      -2.63836332e-07       1.22108763e-05      -2.57582000e-05 
      -7.34701980e-07       1.22108755e-05      -2.57625750e-05 
       2.61975439e-07       1.22152537e-05      -2.57625784e-05 
       7.32841087e-07       1.22152545e-05      -2.57582035e-05 
      -2.63836332e-07       1.22108763e-05      -2.57582000e-05 
      -7.34701980e-07       1.22108755e-05      -2.57625750e-05 
       2.61975439e-07       1.22152537e-05      -2.57625784e-05 
       7.32841087e-07       1.22152545e-05      -2.57582035e-05 
      -2.69005826e-07       1.28728535e-05      -2.71596467e-05 
      -7.48863452e-07       1.28728526e-05      -2.71641252e-05 
       2.67116750e-07       1.28773346e-05      -2.71641288e-05 
       7.46974377e-07       1.28773354e-05      -2.71596503e-05 
      -2.69005826e-07       1.28728535e-05      -2.71596467e-05 
      -7.48863452e-07       1.28728526e-05      -2.71641252e-05 
       2.67116750e-07       1.28773346e-05      -2.71641288e-05 
       7.46974377e-07       1.28773354e-05      -2.71596503e-05 
      -2.74032053e-07       1.35471710e-05      -2.85875930e-05 
      -7.62620189e-07       1.35471702e-05      -2.85921751e-05 
       2.72114330e-07       1.35517558e-05      -2.85921788e-05 
       7.60702466e-07       1.35517566e-05      -2.85875967e-05 
      -2.74032053e-07       1.35471710e-05      -2.85875930e-05 
      -7.62620189e-07       1.35471702e-05      -2.85921751e-05 
       2.72114330e-07       1.35517558e-05      -2.85921788e-05 
       7.60702466e-07       1.35517566e-05      -2.85875967e-05 
      -2.78915008e-07       1.42334648e-05      -3.00412750e-05 
      -7.75972187e-07       1.42334639e-05      -3.00459607e-05 
       2.76968187e-07       1.42381532e-05      -3.00459645e-05 
       7.74025366e-07       1.42381541e-05      -3.00412789e-05 
      -2.78915008e-07       1.42334648e-05      -3.00412750e-05 
      -7.75972187e-07       1.42334639e-05      -3.00459607e-05 
       2.76968187e-07       1.42381532e-05      -3.00459645e-05 
       7.74025366e-07       1.42381541e-05      -3.00412789e-05 
      -2.83654685e-07       1.49313707e-05      -3.15199290e-05 
      -7.88919436e-07       1.49313698e-05      -3.15247182e-05 
       2.81678328e-07       1.49361627e-05      -3.15247222e-05 
       7.86943080e-07       1.49361636e-05      -3.15199330e-05 
      -2.83654685e-07       1.49313707e-05      -3.15199290e-05 
      -7.88919436e-07       1.49313698e-05      -3.15247182e-05 
       2.81678328e-07       1.49361627e-05      -3.15247222e-05 
       7.86943080e-07       1.49361636e-05      -3.15199330e-05 
      -2.88251075e-07       1.56405245e-05      -3.30227912e-05 
      -8.01461931e-07       1.56405236e-05      -3.30276839e-05 
       2.86244759e-07       1.56454202e-05      -3.30276880e-05 
       7.99455615e-07       1.56454211e-05      -3.30227953e-05 
      -2.88251075e-07       1.56405245e-05      -3.30227912e-05 
      -8.01461931e-07       1.56405236e-05      -3.30276839e-05 