# vtk DataFile Version 2.0
./output/onsasExample_BladeCantileverBeamPitch_windVel3DDynamic 3D/onsasExample_BladeCantileverBeamPitch_windVel3DDynamic 3D_0207.vtk
ASCII
DATASET UNSTRUCTURED_GRID

POINTS 800 float
      -1.763139e-24      -7.180703e-02      -7.180703e-02 
       2.012103e-23       7.180703e-02      -7.180703e-02 
       1.763139e-24       7.180703e-02       7.180703e-02 
      -2.012103e-23      -7.180703e-02       7.180703e-02 
       2.000000e-01      -7.180702e-02      -7.180706e-02 
       2.000000e-01       7.180705e-02      -7.180706e-02 
       2.000000e-01       7.180705e-02       7.180701e-02 
       2.000000e-01      -7.180702e-02       7.180701e-02 
       2.000000e-01      -7.180702e-02      -7.180706e-02 
       2.000000e-01       7.180705e-02      -7.180706e-02 
       2.000000e-01       7.180705e-02       7.180701e-02 
       2.000000e-01      -7.180702e-02       7.180701e-02 
       4.000000e-01      -7.180698e-02      -7.180713e-02 
       3.999999e-01       7.180709e-02      -7.180714e-02 
       4.000000e-01       7.180709e-02       7.180693e-02 
       4.000001e-01      -7.180698e-02       7.180693e-02 
       4.000000e-01      -7.180698e-02      -7.180713e-02 
       3.999999e-01       7.180709e-02      -7.180714e-02 
       4.000000e-01       7.180709e-02       7.180693e-02 
       4.000001e-01      -7.180698e-02       7.180693e-02 
       6.000000e-01      -7.180691e-02      -7.180726e-02 
       5.999999e-01       7.180716e-02      -7.180726e-02 
       6.000000e-01       7.180716e-02       7.180681e-02 
       6.000001e-01      -7.180691e-02       7.180681e-02 
       6.000000e-01      -7.180691e-02      -7.180726e-02 
       5.999999e-01       7.180716e-02      -7.180726e-02 
       6.000000e-01       7.180716e-02       7.180681e-02 
       6.000001e-01      -7.180691e-02       7.180681e-02 
       8.000000e-01      -7.180681e-02      -7.180743e-02 
       7.999999e-01       7.180725e-02      -7.180744e-02 
       8.000000e-01       7.180725e-02       7.180663e-02 
       8.000001e-01      -7.180681e-02       7.180663e-02 
       8.000000e-01      -7.180681e-02      -7.180743e-02 
       7.999999e-01       7.180725e-02      -7.180744e-02 
       8.000000e-01       7.180725e-02       7.180663e-02 
       8.000001e-01      -7.180681e-02       7.180663e-02 
       1.000000e+00      -7.180669e-02      -7.180766e-02 
       9.999999e-01       7.180737e-02      -7.180766e-02 
       1.000000e+00       7.180737e-02       7.180641e-02 
       1.000000e+00      -7.180669e-02       7.180641e-02 
       1.000000e+00      -7.180669e-02      -7.180766e-02 
       9.999999e-01       7.180737e-02      -7.180766e-02 
       1.000000e+00       7.180737e-02       7.180641e-02 
       1.000000e+00      -7.180669e-02       7.180641e-02 
       1.200000e+00      -7.180655e-02      -7.180792e-02 
       1.200000e+00       7.180752e-02      -7.180793e-02 
       1.200000e+00       7.180752e-02       7.180614e-02 
       1.200000e+00      -7.180655e-02       7.180614e-02 
       1.200000e+00      -7.180655e-02      -7.180792e-02 
       1.200000e+00       7.180752e-02      -7.180793e-02 
       1.200000e+00       7.180752e-02       7.180614e-02 
       1.200000e+00      -7.180655e-02       7.180614e-02 
       1.400000e+00      -7.180638e-02      -7.180824e-02 
       1.400000e+00       7.180769e-02      -7.180824e-02 
       1.400000e+00       7.180769e-02       7.180583e-02 
       1.400000e+00      -7.180638e-02       7.180583e-02 
       1.400000e+00      -7.180638e-02      -7.180824e-02 
       1.400000e+00       7.180769e-02      -7.180824e-02 
       1.400000e+00       7.180769e-02       7.180583e-02 
       1.400000e+00      -7.180638e-02       7.180583e-02 
       1.600000e+00      -7.180618e-02      -7.180860e-02 
       1.600000e+00       7.180788e-02      -7.180860e-02 
       1.600000e+00       7.180789e-02       7.180547e-02 
       1.600000e+00      -7.180618e-02       7.180547e-02 
       1.600000e+00      -7.180618e-02      -7.180860e-02 
       1.600000e+00       7.180788e-02      -7.180860e-02 
       1.600000e+00       7.180789e-02       7.180547e-02 
       1.600000e+00      -7.180618e-02       7.180547e-02 
       1.800000e+00      -7.180596e-02      -7.180900e-02 
       1.800000e+00       7.180810e-02      -7.180900e-02 
       1.800000e+00       7.180810e-02       7.180507e-02 
       1.800000e+00      -7.180596e-02       7.180507e-02 
       1.800000e+00      -7.180596e-02      -7.180900e-02 
       1.800000e+00       7.180810e-02      -7.180900e-02 
       1.800000e+00       7.180810e-02       7.180507e-02 
       1.800000e+00      -7.180596e-02       7.180507e-02 
       2.000000e+00      -7.180572e-02      -7.180944e-02 
       2.000000e+00       7.180835e-02      -7.180945e-02 
       2.000000e+00       7.180835e-02       7.180462e-02 
       2.000000e+00      -7.180572e-02       7.180462e-02 
       2.000000e+00      -7.180572e-02      -7.180944e-02 
       2.000000e+00       7.180835e-02      -7.180945e-02 
       2.000000e+00       7.180835e-02       7.180462e-02 
       2.000000e+00      -7.180572e-02       7.180462e-02 
       2.200000e+00      -7.180546e-02      -7.180993e-02 
       2.200000e+00       7.180861e-02      -7.180993e-02 
       2.200000e+00       7.180861e-02       7.180413e-02 
       2.200000e+00      -7.180545e-02       7.180414e-02 
       2.200000e+00      -7.180546e-02      -7.180993e-02 
       2.200000e+00       7.180861e-02      -7.180993e-02 
       2.200000e+00       7.180861e-02       7.180413e-02 
       2.200000e+00      -7.180545e-02       7.180414e-02 
       2.400000e+00      -7.180517e-02      -7.181046e-02 
       2.400000e+00       7.180890e-02      -7.181046e-02 
       2.400000e+00       7.180890e-02       7.180361e-02 
       2.400000e+00      -7.180517e-02       7.180361e-02 
       2.400000e+00      -7.180517e-02      -7.181046e-02 
       2.400000e+00       7.180890e-02      -7.181046e-02 
       2.400000e+00       7.180890e-02       7.180361e-02 
       2.400000e+00      -7.180517e-02       7.180361e-02 
       2.600000e+00      -7.180486e-02      -7.181102e-02 
       2.600000e+00       7.180921e-02      -7.181103e-02 
       2.600000e+00       7.180921e-02       7.180304e-02 
       2.600000e+00      -7.180486e-02       7.180304e-02 
       2.600000e+00      -7.180486e-02      -7.181102e-02 
       2.600000e+00       7.180921e-02      -7.181103e-02 
       2.600000e+00       7.180921e-02       7.180304e-02 
       2.600000e+00      -7.180486e-02       7.180304e-02 
       2.800000e+00      -7.180453e-02      -7.181163e-02 
       2.800000e+00       7.180954e-02      -7.181163e-02 
       2.800000e+00       7.180954e-02       7.180243e-02 
       2.800000e+00      -7.180453e-02       7.180244e-02 
       2.800000e+00      -7.180453e-02      -7.181163e-02 
       2.800000e+00       7.180954e-02      -7.181163e-02 
       2.800000e+00       7.180954e-02       7.180243e-02 
       2.800000e+00      -7.180453e-02       7.180244e-02 
       3.000000e+00      -7.180418e-02      -7.181227e-02 
       3.000000e+00       7.180989e-02      -7.181228e-02 
       3.000000e+00       7.180989e-02       7.180179e-02 
       3.000000e+00      -7.180418e-02       7.180179e-02 
       3.000000e+00      -7.180418e-02      -7.181227e-02 
       3.000000e+00       7.180989e-02      -7.181228e-02 
       3.000000e+00       7.180989e-02       7.180179e-02 
       3.000000e+00      -7.180418e-02       7.180179e-02 
       3.200000e+00      -7.180381e-02      -7.181295e-02 
       3.200000e+00       7.181026e-02      -7.181296e-02 
       3.200000e+00       7.181026e-02       7.180111e-02 
       3.200000e+00      -7.180380e-02       7.180111e-02 
       3.200000e+00      -7.180381e-02      -7.181295e-02 
       3.200000e+00       7.181026e-02      -7.181296e-02 
       3.200000e+00       7.181026e-02       7.180111e-02 
       3.200000e+00      -7.180380e-02       7.180111e-02 
       3.400000e+00      -7.180342e-02      -7.181367e-02 
       3.400000e+00       7.181065e-02      -7.181367e-02 
       3.400000e+00       7.181065e-02       7.180039e-02 
       3.400000e+00      -7.180341e-02       7.180039e-02 
       3.400000e+00      -7.180342e-02      -7.181367e-02 
       3.400000e+00       7.181065e-02      -7.181367e-02 
       3.400000e+00       7.181065e-02       7.180039e-02 
       3.400000e+00      -7.180341e-02       7.180039e-02 
       3.600000e+00      -7.180301e-02      -7.181442e-02 
       3.600000e+00       7.181106e-02      -7.181443e-02 
       3.600000e+00       7.181106e-02       7.179964e-02 
       3.600000e+00      -7.180300e-02       7.179964e-02 
       3.600000e+00      -7.180301e-02      -7.181442e-02 
       3.600000e+00       7.181106e-02      -7.181443e-02 
       3.600000e+00       7.181106e-02       7.179964e-02 
       3.600000e+00      -7.180300e-02       7.179964e-02 
       3.800000e+00      -7.180258e-02      -7.181521e-02 
       3.800000e+00       7.181149e-02      -7.181521e-02 
       3.800000e+00       7.181149e-02       7.179885e-02 
       3.800000e+00      -7.180257e-02       7.179885e-02 
       3.800000e+00      -7.180258e-02      -7.181521e-02 
       3.800000e+00       7.181149e-02      -7.181521e-02 
       3.800000e+00       7.181149e-02       7.179885e-02 
       3.800000e+00      -7.180257e-02       7.179885e-02 
       4.000000e+00      -7.180213e-02      -7.181603e-02 
       4.000000e+00       7.181194e-02      -7.181603e-02 
       4.000000e+00       7.181194e-02       7.179803e-02 
       4.000000e+00      -7.180212e-02       7.179803e-02 
       4.000000e+00      -7.180213e-02      -7.181603e-02 
       4.000000e+00       7.181194e-02      -7.181603e-02 
       4.000000e+00       7.181194e-02       7.179803e-02 
       4.000000e+00      -7.180212e-02       7.179803e-02 
       4.200000e+00      -7.180166e-02      -7.181689e-02 
[...]
POINT_DATA       800 
VECTORS Displacements float
      -1.76313928e-24      -2.77555756e-17      -1.38777878e-17 
       2.01210320e-23       1.38777878e-17      -1.38777878e-17 
       1.76313928e-24       2.77555756e-17       1.38777878e-17 
      -2.01210320e-23      -1.38777878e-17       1.38777878e-17 
      -8.40764844e-09       1.38448961e-08      -2.55385162e-08 
      -2.83359216e-08       1.38448947e-08      -2.56893987e-08 
       8.32997357e-09       1.39957823e-08      -2.56894034e-08 
       2.82582467e-08       1.39957836e-08      -2.55385209e-08 
      -8.40764844e-09       1.38448961e-08      -2.55385162e-08 
      -2.83359216e-08       1.38448947e-08      -2.56893987e-08 
       8.32997357e-09       1.39957823e-08      -2.56894034e-08 
       2.82582467e-08       1.39957836e-08      -2.55385209e-08 
      -1.66471862e-08       5.51779047e-08      -1.01640088e-07 
      -5.61239845e-08       5.51778993e-08      -1.01941848e-07 
       1.64916784e-08       5.54796794e-08      -1.01941867e-07 
       5.59684767e-08       5.54796847e-08      -1.01640106e-07 
      -1.66471862e-08       5.51779047e-08      -1.01640088e-07 
      -5.61239845e-08       5.51778993e-08      -1.01941848e-07 
       1.64916784e-08       5.54796794e-08      -1.01941867e-07 
       5.59684767e-08       5.54796847e-08      -1.01640106e-07 
      -2.47186119e-08       1.23470181e-07      -2.27307422e-07 
      -8.33641874e-08       1.23470169e-07      -2.27760055e-07 
       2.44851162e-08       1.23922846e-07      -2.27760095e-07 
       8.31306917e-08       1.23922858e-07      -2.27307462e-07 
      -2.47186119e-08       1.23470181e-07      -2.27307422e-07 
      -8.33641874e-08       1.23470169e-07      -2.27760055e-07 
       2.44851162e-08       1.23922846e-07      -2.27760095e-07 
       8.31306917e-08       1.23922858e-07      -2.27307462e-07 
      -3.26219237e-08       2.18192880e-07      -4.01543223e-07 
      -1.10056528e-07       2.18192859e-07      -4.02146725e-07 
       3.23102884e-08       2.18796437e-07      -4.02146796e-07 
       1.09744893e-07       2.18796458e-07      -4.01543294e-07 
      -3.26219237e-08       2.18192880e-07      -4.01543223e-07 
      -1.10056528e-07       2.18192859e-07      -4.02146725e-07 
       3.23102884e-08       2.18796437e-07      -4.02146796e-07 
       1.09744893e-07       2.18796458e-07      -4.01543294e-07 
      -4.03571204e-08       3.38817156e-07      -6.23350199e-07 
      -1.36201006e-07       3.38817124e-07      -6.24104565e-07 
       3.99671967e-08       3.39571608e-07      -6.24104673e-07 
       1.35811083e-07       3.39571640e-07      -6.23350307e-07 
      -4.03571204e-08       3.38817156e-07      -6.23350199e-07 
      -1.36201006e-07       3.38817124e-07      -6.24104565e-07 
       3.99671967e-08       3.39571608e-07      -6.24104673e-07 
       1.35811083e-07       3.39571640e-07      -6.23350307e-07 
      -4.79242002e-08       4.84814164e-07      -8.91731055e-07 
      -1.61797620e-07       4.84814119e-07      -8.92636282e-07 
       4.74558419e-08       4.85719512e-07      -8.92636434e-07 
       1.61329262e-07       4.85719557e-07      -8.91731207e-07 
      -4.79242002e-08       4.84814164e-07      -8.91731055e-07 
      -1.61797620e-07       4.84814119e-07      -8.92636282e-07 
       4.74558419e-08       4.85719512e-07      -8.92636434e-07 
       1.61329262e-07       4.85719557e-07      -8.91731207e-07 
      -5.53231616e-08       6.55655060e-07      -1.20568850e-06 
      -1.86846366e-07       6.55655000e-07      -1.20674458e-06 
       5.47762269e-08       6.56711306e-07      -1.20674478e-06 
       1.86299432e-07       6.56711366e-07      -1.20568870e-06 
      -5.53231616e-08       6.55655060e-07      -1.20568850e-06 
      -1.86846366e-07       6.55655000e-07      -1.20674458e-06 
       5.47762269e-08       6.56711306e-07      -1.20674478e-06 
       1.86299432e-07       6.56711366e-07      -1.20568870e-06 
      -6.25540029e-08       8.50810998e-07      -1.56422523e-06 
      -2.11347245e-07       8.50810921e-07      -1.56543217e-06 
       6.19283524e-08       8.52018143e-07      -1.56543243e-06 
       2.10721594e-07       8.52018220e-07      -1.56422549e-06 
      -6.25540029e-08       8.50810998e-07      -1.56422523e-06 
      -2.11347245e-07       8.50810921e-07      -1.56543217e-06 
       6.19283524e-08       8.52018143e-07      -1.56543243e-06 
       2.10721594e-07       8.52018220e-07      -1.56422549e-06 
      -6.96167228e-08       1.06975313e-06      -1.96634396e-06 
      -2.35300254e-07       1.06975304e-06      -1.96770175e-06 
       6.89122199e-08       1.07111118e-06      -1.96770207e-06 
       2.34595752e-07       1.07111127e-06      -1.96634429e-06 
      -6.96167228e-08       1.06975313e-06      -1.96634396e-06 
      -2.35300254e-07       1.06975304e-06      -1.96770175e-06 
       6.89122199e-08       1.07111118e-06      -1.96770207e-06 
       2.34595752e-07       1.07111127e-06      -1.96634429e-06 
      -7.65113197e-08       1.31195262e-06      -2.41104740e-06 
      -2.58705393e-07       1.31195251e-06      -2.41255604e-06 
       7.57278311e-08       1.31346157e-06      -2.41255643e-06 
       2.57921905e-07       1.31346168e-06      -2.41104779e-06 
      -7.65113197e-08       1.31195262e-06      -2.41104740e-06 
      -2.58705393e-07       1.31195251e-06      -2.41255604e-06 
       7.57278311e-08       1.31346157e-06      -2.41255643e-06 
       2.57921904e-07       1.31346168e-06      -2.41104779e-06 
      -8.32324947e-08       1.57689743e-06      -2.89736336e-06 
      -2.81576544e-07       1.57689729e-06      -2.89900685e-06 
       8.23988233e-08       1.57854129e-06      -2.89900732e-06 
       2.80742873e-07       1.57854142e-06      -2.89736382e-06 
      -8.32324947e-08       1.57689743e-06      -2.89736336e-06 
      -2.81576544e-07       1.57689729e-06      -2.89900685e-06 
       8.23988233e-08       1.57854129e-06      -2.89900732e-06 
       2.80742873e-07       1.57854142e-06      -2.89736382e-06 
      -8.98048964e-08       1.86409586e-06      -3.42437574e-06 
      -3.03958306e-07       1.86409570e-06      -3.42615408e-06 
       8.89206944e-08       1.86587463e-06      -3.42615462e-06 
       3.03074104e-07       1.86587479e-06      -3.42437628e-06 
      -8.98048964e-08       1.86409586e-06      -3.42437574e-06 
      -3.03958306e-07       1.86409570e-06      -3.42615408e-06 
       8.89206944e-08       1.86587463e-06      -3.42615462e-06 
       3.03074104e-07       1.86587479e-06      -3.42437628e-06 
      -9.62285212e-08       2.17307356e-06      -3.99119532e-06 
      -3.25850675e-07       2.17307338e-06      -3.99310852e-06 
       9.52934474e-08       2.17498725e-06      -3.99310914e-06 
       3.24915602e-07       2.17498743e-06      -3.99119594e-06 
      -9.62285212e-08       2.17307356e-06      -3.99119532e-06 
      -3.25850675e-07       2.17307338e-06      -3.99310852e-06 
       9.52934474e-08       2.17498725e-06      -3.99310914e-06 
       3.24915602e-07       2.17498743e-06      -3.99119594e-06 
      -1.02503365e-07       2.50335619e-06      -4.59693292e-06 
      -3.47253647e-07       2.50335598e-06      -4.59898096e-06 
       1.01517087e-07       2.50540479e-06      -4.59898166e-06 
       3.46267369e-07       2.50540500e-06      -4.59693362e-06 
      -1.02503365e-07       2.50335619e-06      -4.59693292e-06 
      -3.47253647e-07       2.50335598e-06      -4.59898096e-06 
       1.01517087e-07       2.50540479e-06      -4.59898166e-06 
       3.46267369e-07       2.50540500e-06      -4.59693362e-06 
      -1.08629425e-07       2.85446940e-06      -5.24069932e-06 
      -3.68167219e-07       2.85446916e-06      -5.24288221e-06 
       1.07591617e-07       2.85665291e-06      -5.24288300e-06 
       3.67129410e-07       2.85665315e-06      -5.24070011e-06 
      -1.08629425e-07       2.85446940e-06      -5.24069932e-06 
      -3.68167219e-07       2.85446916e-06      -5.24288221e-06 
       1.07591617e-07       2.85665291e-06      -5.24288300e-06 
       3.67129410e-07       2.85665315e-06      -5.24070011e-06 
      -1.14606697e-07       3.22593883e-06      -5.92160532e-06 
      -3.88591387e-07       3.22593857e-06      -5.92392306e-06 
       1.13517040e-07       3.22825726e-06      -5.92392393e-06 
       3.87501730e-07       3.22825752e-06      -5.92160620e-06 
      -1.14606697e-07       3.22593883e-06      -5.92160532e-06 
      -3.88591387e-07       3.22593857e-06      -5.92392306e-06 
       1.13517040e-07       3.22825726e-06      -5.92392393e-06 
       3.87501730e-07       3.22825752e-06      -5.92160620e-06 
      -1.20435176e-07       3.61729015e-06      -6.63876172e-06 
      -4.08526146e-07       3.61728986e-06      -6.64121430e-06 
       1.19293361e-07       3.61974349e-06      -6.64121527e-06 
       4.07384332e-07       3.61974378e-06      -6.63876269e-06 
      -1.20435176e-07       3.61729015e-06      -6.63876172e-06 
      -4.08526146e-07       3.61728986e-06      -6.64121430e-06 
       1.19293361e-07       3.61974349e-06      -6.64121527e-06 
       4.07384332e-07       3.61974378e-06      -6.63876269e-06 
      -1.26114859e-07       4.02804899e-06      -7.39127932e-06 
      -4.27971493e-07       4.02804867e-06      -7.39386674e-06 
       1.24920585e-07       4.03063725e-06      -7.39386780e-06 
       4.26777218e-07       4.03063757e-06      -7.39128039e-06 
      -1.26114859e-07       4.02804899e-06      -7.39127932e-06 
      -4.27971493e-07       4.02804867e-06      -7.39386674e-06 
       1.24920585e-07       4.03063725e-06      -7.39386780e-06 
       4.26777218e-07       4.03063757e-06      -7.39128039e-06 
      -1.31645743e-07       4.45774101e-06      -8.17826891e-06 
      -4.46927425e-07       4.45774066e-06      -8.18099117e-06 
       1.30398712e-07       4.46046419e-06      -8.18099233e-06 
       4.45680394e-07       4.46046454e-06      -8.17827007e-06 
      -1.31645743e-07       4.45774101e-06      -8.17826891e-06 
      -4.46927425e-07       4.45774066e-06      -8.18099117e-06 
       1.30398712e-07       4.46046419e-06      -8.18099233e-06 
       4.45680394e-07       4.46046454e-06      -8.17827007e-06 
      -1.37027824e-07       4.90589186e-06      -8.99884129e-06 
      -4.65393938e-07       4.90589149e-06      -9.00169839e-06 
       1.35727749e-07       4.90874996e-06      -9.00169965e-06 
       4.64093863e-07       4.90875034e-06      -8.99884255e-06 
      -1.37027824e-07       4.90589186e-06      -8.99884129e-06 
      -4.65393938e-07       4.90589149e-06      -9.00169839e-06 
       1.35727749e-07       4.90874996e-06      -9.00169965e-06 
       4.64093863e-07       4.90875034e-06      -8.99884255e-06 
      -1.42260788e-07       5.37204424e-06      -9.85213344e-06 
      -4.83390308e-07       5.37204383e-06      -9.85510941e-06 
       1.40927646e-07       5.37502128e-06      -9.85511077e-06 
       4.82057167e-07       5.37502168e-06      -9.85213480e-06 
      -1.42260788e-07       5.37204424e-06      -9.85213344e-06 
      -4.83390308e-07       5.37204383e-06      -9.85510941e-06 
       1.40927646e-07       5.37502128e-06      -9.85511077e-06 
       4.82057167e-07       5.37502168e-06      -9.85213480e-06 
      -1.47364507e-07       5.85576155e-06      -1.07373393e-05 
      -5.00956357e-07       5.85576112e-06      -1.07404341e-05 
       1.45997888e-07       5.85885754e-06      -1.07404356e-05 
       4.99589738e-07       5.85885798e-06      -1.07373408e-05 
      -1.47364507e-07       5.85576155e-06      -1.07373393e-05 
      -5.00956357e-07       5.85576112e-06      -1.07404341e-05 
       1.45997888e-07       5.85885754e-06      -1.07404356e-05 
       4.99589738e-07       5.85885798e-06      -1.07373408e-05 
      -1.52338974e-07       6.35662454e-06      -1.16536790e-05 
      -5.18092079e-07       6.35662407e-06      -1.16568927e-05 
       1.50938479e-07       6.35983947e-06      -1.16568943e-05 
       5.16691584e-07       6.35983994e-06      -1.16536806e-05 
      -1.52338974e-07       6.35662454e-06      -1.16536790e-05 
      -5.18092079e-07       6.35662407e-06      -1.16568927e-05 
       1.50938479e-07       6.35983947e-06      -1.16568943e-05 
       5.16691584e-07       6.35983994e-06      -1.16536806e-05 
      -1.57184187e-07       6.87421390e-06      -1.26003727e-05 
      -5.34797470e-07       6.87421340e-06      -1.26037053e-05 
       1.55749424e-07       6.87754778e-06      -1.26037070e-05 
       5.33362707e-07       6.87754827e-06      -1.26003744e-05 
      -1.57184187e-07       6.87421390e-06      -1.26003727e-05 
      -5.34797470e-07       6.87421340e-06      -1.26037053e-05 
       1.55749424e-07       6.87754778e-06      -1.26037070e-05 
       5.33362707e-07       6.87754827e-06      -1.26003744e-05 
      -1.61900140e-07       7.40811035e-06      -1.35766407e-05 
      -5.51072525e-07       7.40810982e-06      -1.35800921e-05 
       1.60430727e-07       7.41156318e-06      -1.35800939e-05 
       5.49603113e-07       7.41156370e-06      -1.35766424e-05 
      -1.61900140e-07       7.40811035e-06      -1.35766407e-05 
      -5.51072525e-07       7.40810982e-06      -1.35800921e-05 
       1.60430727e-07       7.41156318e-06      -1.35800939e-05 
       5.49603113e-07       7.41156370e-06      -1.35766424e-05 
      -1.66486825e-07       7.95789461e-06      -1.45817030e-05 
      -5.66917238e-07       7.95789405e-06      -1.45852732e-05 
       1.64982396e-07       7.96146638e-06      -1.45852751e-05 
       5.65412808e-07       7.96146694e-06      -1.45817048e-05 
      -1.66486825e-07       7.95789461e-06      -1.45817030e-05 
      -5.66917238e-07       7.95789405e-06      -1.45852732e-05 
       1.64982396e-07       7.96146638e-06      -1.45852751e-05 
       5.65412808e-07       7.96146694e-06      -1.45817048e-05 
      -1.70944241e-07       8.52314739e-06      -1.56147798e-05 
      -5.82331605e-07       8.52314680e-06      -1.56184689e-05 
       1.69404433e-07       8.52683811e-06      -1.56184709e-05 
       5.80791796e-07       8.52683870e-06      -1.56147817e-05 
      -1.70944241e-07       8.52314739e-06      -1.56147798e-05 
      -5.82331605e-07       8.52314680e-06      -1.56184689e-05 
       1.69404433e-07       8.52683811e-06      -1.56184709e-05 
       5.80791796e-07       8.52683870e-06      -1.56147817e-05 
      -1.75272380e-07       9.10344941e-06      -1.66750912e-05 
      -5.97315618e-07       9.10344879e-06      -1.66788993e-05 
       1.73696845e-07       9.10725908e-06      -1.66789013e-05 
       5.95740084e-07       9.10725970e-06      -1.66750933e-05 
      -1.75272380e-07       9.10344941e-06      -1.66750912e-05 
      -5.97315618e-07       9.10344879e-06      -1.66788993e-05 
       1.73696845e-07       9.10725908e-06      -1.66789013e-05 
       5.95740084e-07       9.10725970e-06      -1.66750933e-05 
      -1.79471239e-07       9.69838139e-06      -1.77618575e-05 
      -6.11869277e-07       9.69838074e-06      -1.77657844e-05 
       1.77859635e-07       9.70231000e-06      -1.77657866e-05 
       6.10257673e-07       9.70231065e-06      -1.77618597e-05 
      -1.79471239e-07       9.69838139e-06      -1.77618575e-05 
      -6.11869277e-07       9.69838074e-06      -1.77657844e-05 
       1.77859635e-07       9.70231000e-06      -1.77657866e-05 
       6.10257673e-07       9.70231065e-06      -1.77618597e-05 
      -1.83540813e-07       1.03075240e-05      -1.88742989e-05 
      -6.25992573e-07       1.03075234e-05      -1.88783446e-05 
       1.81892810e-07       1.03115716e-05      -1.88783469e-05 
       6.24344571e-07       1.03115723e-05      -1.88743011e-05 
      -1.83540813e-07       1.03075240e-05      -1.88742989e-05 
      -6.25992573e-07       1.03075234e-05      -1.88783446e-05 
       1.81892810e-07       1.03115716e-05      -1.88783469e-05 
       6.24344571e-07       1.03115723e-05      -1.88743011e-05 
      -1.87484265e-07       1.09304752e-05      -2.00116619e-05 
      -6.39708463e-07       1.09304745e-05      -2.00158106e-05 
       1.85813063e-07       1.09346258e-05      -2.00158129e-05 
       6.38037261e-07       1.09346265e-05      -2.00116643e-05 
      -1.87484265e-07       1.09304752e-05      -2.00116619e-05 
      -6.39708463e-07       1.09304745e-05      -2.00158106e-05 
       1.85813063e-07       1.09346258e-05      -2.00158129e-05 
       6.38037261e-07       1.09346265e-05      -2.00116643e-05 
      -1.91317616e-07       1.15668537e-05      -2.11732498e-05 
      -6.53052892e-07       1.15668530e-05      -2.11775014e-05 
       1.89622823e-07       1.15711073e-05      -2.11775039e-05 
       6.51358099e-07       1.15711080e-05      -2.11732523e-05 
      -1.91317616e-07       1.15668537e-05      -2.11732498e-05 
      -6.53052892e-07       1.15668530e-05      -2.11775014e-05 
       1.89622823e-07       1.15711073e-05      -2.11775039e-05 
       6.51358099e-07       1.15711080e-05      -2.11732523e-05 
      -1.95040861e-07       1.22162955e-05      -2.23583914e-05 
      -6.66025852e-07       1.22162948e-05      -2.23627459e-05 
       1.93322100e-07       1.22206521e-05      -2.23627485e-05 
       6.64307091e-07       1.22206529e-05      -2.23583940e-05 
      -1.95040861e-07       1.22162955e-05      -2.23583914e-05 
      -6.66025852e-07       1.22162948e-05      -2.23627459e-05 
       1.93322100e-07       1.22206521e-05      -2.23627485e-05 
       6.64307091e-07       1.22206529e-05      -2.23583940e-05 
      -1.98653995e-07       1.28784367e-05      -2.35664155e-05 
      -6.78627342e-07       1.28784359e-05      -2.35708730e-05 
       1.96910893e-07       1.28828963e-05      -2.35708756e-05 
       6.76884240e-07       1.28828971e-05      -2.35664182e-05 
      -1.98653995e-07       1.28784367e-05      -2.35664155e-05 
      -6.78627342e-07       1.28784359e-05      -2.35708730e-05 
       1.96910893e-07       1.28828963e-05      -2.35708756e-05 
       6.76884240e-07       1.28828971e-05      -2.35664182e-05 
      -2.02157013e-07       1.35529133e-05      -2.47966510e-05 
      -6.90857354e-07       1.35529125e-05      -2.48012114e-05 
       2.00389212e-07       1.35574758e-05      -2.48012141e-05 
       6.89089553e-07       1.35574767e-05      -2.47966538e-05 
      -2.02157013e-07       1.35529133e-05      -2.47966510e-05 
      -6.90857354e-07       1.35529125e-05      -2.48012114e-05 
       2.00389212e-07       1.35574758e-05      -2.48012141e-05 
       6.89089553e-07       1.35574767e-05      -2.47966538e-05 
      -2.05549909e-07       1.42393613e-05      -2.60484266e-05 
      -7.02715883e-07       1.42393604e-05      -2.60530899e-05 
       2.03757060e-07       1.42440268e-05      -2.60530928e-05 
       7.00923034e-07       1.42440277e-05      -2.60484295e-05 
      -2.05549909e-07       1.42393613e-05      -2.60484266e-05 
      -7.02715883e-07       1.42393604e-05      -2.60530899e-05 
       2.03757060e-07       1.42440268e-05      -2.60530928e-05 
       7.00923034e-07       1.42440277e-05      -2.60484295e-05 
      -2.08832677e-07       1.49374167e-05      -2.73210713e-05 
      -7.14202923e-07       1.49374158e-05      -2.73258375e-05 
       2.07014444e-07       1.49421852e-05      -2.73258404e-05 
       7.12384690e-07       1.49421861e-05      -2.73210742e-05 
      -2.08832677e-07       1.49374167e-05      -2.73210713e-05 
      -7.14202923e-07       1.49374158e-05      -2.73258375e-05 
       2.07014444e-07       1.49421852e-05      -2.73258404e-05 
       7.12384690e-07       1.49421861e-05      -2.73210742e-05 
      -2.12005312e-07       1.56467155e-05      -2.86139137e-05 
      -7.25318468e-07       1.56467146e-05      -2.86187828e-05 
       2.10161369e-07       1.56515871e-05      -2.86187859e-05 
       7.23474527e-07       1.56515880e-05      -2.86139167e-05 
      -2.12005312e-07       1.56467155e-05      -2.86139137e-05 
      -7.25318468e-07       1.56467146e-05      -2.86187828e-05 