# vtk DataFile Version 2.0
./output/onsasExample_BladeCantileverBeamPitch_windVel3DDynamic 3D/onsasExample_BladeCantileverBeamPitch_windVel3DDynamic 3D_0143.vtk
ASCII
DATASET UNSTRUCTURED_GRID

POINTS 800 float
      -3.671459e-24      -7.180703e-02      -7.180703e-02 
       5.149272e-24       7.180703e-02      -7.180703e-02 
       3.671459e-24       7.180703e-02       7.180703e-02 
      -5.149272e-24      -7.180703e-02       7.180703e-02 
       2.000000e-01      -7.180702e-02      -7.180706e-02 
       2.000000e-01       7.180705e-02      -7.180706e-02 
       2.000000e-01       7.180705e-02       7.180700e-02 
       2.000000e-01      -7.180702e-02       7.180700e-02 
       2.000000e-01      -7.180702e-02      -7.180706e-02 
       2.000000e-01       7.180705e-02      -7.180706e-02 
       2.000000e-01       7.180705e-02       7.180700e-02 
       2.000000e-01      -7.180702e-02       7.180700e-02 
       4.000000e-01      -7.180698e-02      -7.180715e-02 
       3.999999e-01       7.180709e-02      -7.180715e-02 
       4.000000e-01       7.180709e-02       7.180692e-02 
       4.000001e-01      -7.180698e-02       7.180692e-02 
       4.000000e-01      -7.180698e-02      -7.180715e-02 
       3.999999e-01       7.180709e-02      -7.180715e-02 
       4.000000e-01       7.180709e-02       7.180692e-02 
       4.000001e-01      -7.180698e-02       7.180692e-02 
       6.000000e-01      -7.180691e-02      -7.180729e-02 
       5.999999e-01       7.180715e-02      -7.180729e-02 
       6.000000e-01       7.180715e-02       7.180678e-02 
       6.000001e-01      -7.180691e-02       7.180678e-02 
       6.000000e-01      -7.180691e-02      -7.180729e-02 
       5.999999e-01       7.180715e-02      -7.180729e-02 
       6.000000e-01       7.180715e-02       7.180678e-02 
       6.000001e-01      -7.180691e-02       7.180678e-02 
       8.000000e-01      -7.180682e-02      -7.180748e-02 
       7.999999e-01       7.180725e-02      -7.180748e-02 
       8.000000e-01       7.180725e-02       7.180658e-02 
       8.000001e-01      -7.180682e-02       7.180658e-02 
       8.000000e-01      -7.180682e-02      -7.180748e-02 
       7.999999e-01       7.180725e-02      -7.180748e-02 
       8.000000e-01       7.180725e-02       7.180658e-02 
       8.000001e-01      -7.180682e-02       7.180658e-02 
       9.999999e-01      -7.180670e-02      -7.180773e-02 
       9.999999e-01       7.180737e-02      -7.180773e-02 
       1.000000e+00       7.180737e-02       7.180633e-02 
       1.000000e+00      -7.180670e-02       7.180633e-02 
       9.999999e-01      -7.180670e-02      -7.180773e-02 
       9.999999e-01       7.180737e-02      -7.180773e-02 
       1.000000e+00       7.180737e-02       7.180633e-02 
       1.000000e+00      -7.180670e-02       7.180633e-02 
       1.200000e+00      -7.180656e-02      -7.180804e-02 
       1.200000e+00       7.180751e-02      -7.180804e-02 
       1.200000e+00       7.180751e-02       7.180603e-02 
       1.200000e+00      -7.180656e-02       7.180603e-02 
       1.200000e+00      -7.180656e-02      -7.180804e-02 
       1.200000e+00       7.180751e-02      -7.180804e-02 
       1.200000e+00       7.180751e-02       7.180603e-02 
       1.200000e+00      -7.180656e-02       7.180603e-02 
       1.400000e+00      -7.180639e-02      -7.180839e-02 
       1.400000e+00       7.180768e-02      -7.180839e-02 
       1.400000e+00       7.180768e-02       7.180568e-02 
       1.400000e+00      -7.180639e-02       7.180568e-02 
       1.400000e+00      -7.180639e-02      -7.180839e-02 
       1.400000e+00       7.180768e-02      -7.180839e-02 
       1.400000e+00       7.180768e-02       7.180568e-02 
       1.400000e+00      -7.180639e-02       7.180568e-02 
       1.600000e+00      -7.180620e-02      -7.180879e-02 
       1.600000e+00       7.180787e-02      -7.180879e-02 
       1.600000e+00       7.180787e-02       7.180527e-02 
       1.600000e+00      -7.180620e-02       7.180527e-02 
       1.600000e+00      -7.180620e-02      -7.180879e-02 
       1.600000e+00       7.180787e-02      -7.180879e-02 
       1.600000e+00       7.180787e-02       7.180527e-02 
       1.600000e+00      -7.180620e-02       7.180527e-02 
       1.800000e+00      -7.180598e-02      -7.180925e-02 
       1.800000e+00       7.180808e-02      -7.180925e-02 
       1.800000e+00       7.180809e-02       7.180482e-02 
       1.800000e+00      -7.180598e-02       7.180482e-02 
       1.800000e+00      -7.180598e-02      -7.180925e-02 
       1.800000e+00       7.180808e-02      -7.180925e-02 
       1.800000e+00       7.180809e-02       7.180482e-02 
       1.800000e+00      -7.180598e-02       7.180482e-02 
       2.000000e+00      -7.180574e-02      -7.180975e-02 
       2.000000e+00       7.180832e-02      -7.180975e-02 
       2.000000e+00       7.180832e-02       7.180432e-02 
       2.000000e+00      -7.180574e-02       7.180432e-02 
       2.000000e+00      -7.180574e-02      -7.180975e-02 
       2.000000e+00       7.180832e-02      -7.180975e-02 
       2.000000e+00       7.180832e-02       7.180432e-02 
       2.000000e+00      -7.180574e-02       7.180432e-02 
       2.200000e+00      -7.180548e-02      -7.181030e-02 
       2.200000e+00       7.180858e-02      -7.181030e-02 
       2.200000e+00       7.180858e-02       7.180377e-02 
       2.200000e+00      -7.180548e-02       7.180377e-02 
       2.200000e+00      -7.180548e-02      -7.181030e-02 
       2.200000e+00       7.180858e-02      -7.181030e-02 
       2.200000e+00       7.180858e-02       7.180377e-02 
       2.200000e+00      -7.180548e-02       7.180377e-02 
       2.400000e+00      -7.180520e-02      -7.181089e-02 
       2.400000e+00       7.180886e-02      -7.181089e-02 
       2.400000e+00       7.180887e-02       7.180317e-02 
       2.400000e+00      -7.180520e-02       7.180318e-02 
       2.400000e+00      -7.180520e-02      -7.181089e-02 
       2.400000e+00       7.180886e-02      -7.181089e-02 
       2.400000e+00       7.180887e-02       7.180317e-02 
       2.400000e+00      -7.180520e-02       7.180318e-02 
       2.600000e+00      -7.180490e-02      -7.181153e-02 
       2.600000e+00       7.180917e-02      -7.181153e-02 
       2.600000e+00       7.180917e-02       7.180253e-02 
       2.600000e+00      -7.180490e-02       7.180253e-02 
       2.600000e+00      -7.180490e-02      -7.181153e-02 
       2.600000e+00       7.180917e-02      -7.181153e-02 
       2.600000e+00       7.180917e-02       7.180253e-02 
       2.600000e+00      -7.180490e-02       7.180253e-02 
       2.800000e+00      -7.180458e-02      -7.181222e-02 
       2.800000e+00       7.180949e-02      -7.181222e-02 
       2.800000e+00       7.180949e-02       7.180185e-02 
       2.800000e+00      -7.180457e-02       7.180185e-02 
       2.800000e+00      -7.180458e-02      -7.181222e-02 
       2.800000e+00       7.180949e-02      -7.181222e-02 
       2.800000e+00       7.180949e-02       7.180185e-02 
       2.800000e+00      -7.180457e-02       7.180185e-02 
       3.000000e+00      -7.180423e-02      -7.181294e-02 
       3.000000e+00       7.180984e-02      -7.181295e-02 
       3.000000e+00       7.180984e-02       7.180112e-02 
       3.000000e+00      -7.180423e-02       7.180112e-02 
       3.000000e+00      -7.180423e-02      -7.181294e-02 
       3.000000e+00       7.180984e-02      -7.181295e-02 
       3.000000e+00       7.180984e-02       7.180112e-02 
       3.000000e+00      -7.180423e-02       7.180112e-02 
       3.200000e+00      -7.180387e-02      -7.181371e-02 
       3.200000e+00       7.181020e-02      -7.181372e-02 
       3.200000e+00       7.181020e-02       7.180035e-02 
       3.200000e+00      -7.180386e-02       7.180035e-02 
       3.200000e+00      -7.180387e-02      -7.181371e-02 
       3.200000e+00       7.181020e-02      -7.181372e-02 
       3.200000e+00       7.181020e-02       7.180035e-02 
       3.200000e+00      -7.180386e-02       7.180035e-02 
       3.400000e+00      -7.180348e-02      -7.181453e-02 
       3.400000e+00       7.181058e-02      -7.181453e-02 
       3.400000e+00       7.181059e-02       7.179954e-02 
       3.400000e+00      -7.180348e-02       7.179954e-02 
       3.400000e+00      -7.180348e-02      -7.181453e-02 
       3.400000e+00       7.181058e-02      -7.181453e-02 
       3.400000e+00       7.181059e-02       7.179954e-02 
       3.400000e+00      -7.180348e-02       7.179954e-02 
       3.600000e+00      -7.180308e-02      -7.181538e-02 
       3.600000e+00       7.181099e-02      -7.181538e-02 
       3.600000e+00       7.181099e-02       7.179869e-02 
       3.600000e+00      -7.180308e-02       7.179869e-02 
       3.600000e+00      -7.180308e-02      -7.181538e-02 
       3.600000e+00       7.181099e-02      -7.181538e-02 
       3.600000e+00       7.181099e-02       7.179869e-02 
       3.600000e+00      -7.180308e-02       7.179869e-02 
       3.800000e+00      -7.180266e-02      -7.181627e-02 
       3.800000e+00       7.181141e-02      -7.181627e-02 
       3.800000e+00       7.181141e-02       7.179779e-02 
       3.800000e+00      -7.180266e-02       7.179780e-02 
       3.800000e+00      -7.180266e-02      -7.181627e-02 
       3.800000e+00       7.181141e-02      -7.181627e-02 
       3.800000e+00       7.181141e-02       7.179779e-02 
       3.800000e+00      -7.180266e-02       7.179780e-02 
       4.000000e+00      -7.180222e-02      -7.181720e-02 
       3.999999e+00       7.181185e-02      -7.181720e-02 
       4.000000e+00       7.181185e-02       7.179686e-02 
       4.000001e+00      -7.180222e-02       7.179687e-02 
       4.000000e+00      -7.180222e-02      -7.181720e-02 
       3.999999e+00       7.181185e-02      -7.181720e-02 
       4.000000e+00       7.181185e-02       7.179686e-02 
       4.000001e+00      -7.180222e-02       7.179687e-02 
       4.200000e+00      -7.180176e-02      -7.181817e-02 
[...]
POINT_DATA       800 
VECTORS Displacements float
      -3.67145925e-24       0.00000000e+00      -1.38777878e-17 
       5.14927176e-24       1.38777878e-17       0.00000000e+00 
       3.67145925e-24       0.00000000e+00       1.38777878e-17 
      -5.14927176e-24      -1.38777878e-17       0.00000000e+00 
      -1.08295516e-08       1.36081505e-08      -2.86731837e-08 
      -3.04187455e-08       1.36081492e-08      -2.88251471e-08 
       1.07417021e-08       1.37601182e-08      -2.88251529e-08 
       3.03308960e-08       1.37601195e-08      -2.86731896e-08 
      -1.08295516e-08       1.36081505e-08      -2.86731837e-08 
      -3.04187455e-08       1.36081492e-08      -2.88251471e-08 
       1.07417021e-08       1.37601182e-08      -2.88251529e-08 
       3.03308960e-08       1.37601195e-08      -2.86731896e-08 
      -2.14664318e-08       5.42328066e-08      -1.14135008e-07 
      -6.02659366e-08       5.42328014e-08      -1.14438930e-07 
       2.12905437e-08       5.45367448e-08      -1.14438953e-07 
       6.00900485e-08       5.45367500e-08      -1.14135031e-07 
      -2.14664318e-08       5.42328066e-08      -1.14135008e-07 
      -6.02659366e-08       5.42328014e-08      -1.14438930e-07 
       2.12905437e-08       5.45367448e-08      -1.14438953e-07 
       6.00900485e-08       5.45367500e-08      -1.14135031e-07 
      -3.19106388e-08       1.21346328e-07      -2.55320933e-07 
      -8.95415715e-08       1.21346316e-07      -2.55776808e-07 
       3.16465267e-08       1.21802239e-07      -2.55776859e-07 
       8.92774594e-08       1.21802251e-07      -2.55320985e-07 
      -3.19106388e-08       1.21346328e-07      -2.55320933e-07 
      -8.95415715e-08       1.21346316e-07      -2.55776808e-07 
       3.16465267e-08       1.21802239e-07      -2.55776859e-07 
       8.92774594e-08       1.21802251e-07      -2.55320985e-07 
      -4.21621706e-08       2.14421074e-07      -4.51166419e-07 
      -1.18245648e-07       2.14421054e-07      -4.51774242e-07 
       4.18096526e-08       2.15028961e-07      -4.51774331e-07 
       1.17893130e-07       2.15028981e-07      -4.51166508e-07 
      -4.21621706e-08       2.14421074e-07      -4.51166419e-07 
      -1.18245648e-07       2.14421054e-07      -4.51774242e-07 
       4.18096526e-08       2.15028961e-07      -4.51774331e-07 
       1.17893130e-07       2.15028981e-07      -4.51166508e-07 
      -5.22210258e-08       3.32929405e-07      -7.00606925e-07 
      -1.46378166e-07       3.32929374e-07      -7.01366692e-07 
       5.17799235e-08       3.33689270e-07      -7.01366828e-07 
       1.45937064e-07       3.33689301e-07      -7.00607062e-07 
      -5.22210258e-08       3.32929405e-07      -7.00606925e-07 
      -1.46378166e-07       3.32929374e-07      -7.01366692e-07 
       5.17799235e-08       3.33689270e-07      -7.01366828e-07 
       1.45937064e-07       3.33689301e-07      -7.00607062e-07 
      -6.20872025e-08       4.76343680e-07      -1.00257791e-06 
      -1.73939122e-07       4.76343636e-07      -1.00348962e-06 
       6.15573412e-08       4.77255525e-07      -1.00348981e-06 
       1.73409261e-07       4.77255569e-07      -1.00257810e-06 
      -6.20872025e-08       4.76343680e-07      -1.00257791e-06 
      -1.73939122e-07       4.76343636e-07      -1.00348962e-06 
       6.15573412e-08       4.77255525e-07      -1.00348981e-06 
       1.73409261e-07       4.77255569e-07      -1.00257810e-06 
      -7.17606983e-08       6.44136258e-07      -1.35601484e-06 
      -2.00928514e-07       6.44136200e-07      -1.35707848e-06 
       7.11419070e-08       6.45200086e-07      -1.35707874e-06 
       2.00309723e-07       6.45200144e-07      -1.35601510e-06 
      -7.17606983e-08       6.44136258e-07      -1.35601484e-06 
      -2.00928514e-07       6.44136200e-07      -1.35707848e-06 
       7.11419070e-08       6.45200086e-07      -1.35707874e-06 
       2.00309723e-07       6.45200144e-07      -1.35601510e-06 
      -8.12415126e-08       8.35779501e-07      -1.75985316e-06 
      -2.27346342e-07       8.35779426e-07      -1.76106874e-06 
       8.05336233e-08       8.36995313e-07      -1.76106907e-06 
       2.26638452e-07       8.36995387e-07      -1.75985349e-06 
      -8.12415126e-08       8.35779501e-07      -1.75985316e-06 
      -2.27346342e-07       8.35779426e-07      -1.76106874e-06 
       8.05336233e-08       8.36995313e-07      -1.76106907e-06 
       2.26638452e-07       8.36995387e-07      -1.75985349e-06 
      -9.05296424e-08       1.05074577e-06      -2.21302835e-06 
      -2.53192602e-07       1.05074567e-06      -2.21439585e-06 
       8.97324917e-08       1.05211356e-06      -2.21439626e-06 
       2.52395451e-07       1.05211366e-06      -2.21302876e-06 
      -9.05296424e-08       1.05074577e-06      -2.21302835e-06 
      -2.53192602e-07       1.05074567e-06      -2.21439585e-06 
       8.97324917e-08       1.05211356e-06      -2.21439626e-06 
       2.52395451e-07       1.05211366e-06      -2.21302876e-06 
      -9.96250866e-08       1.28850741e-06      -2.71447586e-06 
      -2.78467294e-07       1.28850730e-06      -2.71599528e-06 
       9.87385138e-08       1.29002720e-06      -2.71599578e-06 
       2.77580721e-07       1.29002731e-06      -2.71447635e-06 
      -9.96250866e-08       1.28850741e-06      -2.71447586e-06 
      -2.78467294e-07       1.28850730e-06      -2.71599528e-06 
       9.87385138e-08       1.29002720e-06      -2.71599578e-06 
       2.77580721e-07       1.29002731e-06      -2.71447635e-06 
      -1.08520348e-07       1.54855381e-06      -3.26315455e-06 
      -3.03182457e-07       1.54855367e-06      -3.26480989e-06 
       1.07573882e-07       1.55020957e-06      -3.26481048e-06 
       3.02235991e-07       1.55020970e-06      -3.26315514e-06 
      -1.08520348e-07       1.54855381e-06      -3.26315455e-06 
      -3.03182457e-07       1.54855367e-06      -3.26480989e-06 
       1.07573882e-07       1.55020957e-06      -3.26481048e-06 
       3.02235991e-07       1.55020970e-06      -3.26315514e-06 
      -1.17239517e-07       1.83039516e-06      -3.85807474e-06 
      -3.27382355e-07       1.83039500e-06      -3.85986598e-06 
       1.16232737e-07       1.83218689e-06      -3.85986667e-06 
       3.26375575e-07       1.83218705e-06      -3.85807543e-06 
      -1.17239517e-07       1.83039516e-06      -3.85807474e-06 
      -3.27382355e-07       1.83039500e-06      -3.85986598e-06 
       1.16232737e-07       1.83218689e-06      -3.85986667e-06 
       3.26375575e-07       1.83218705e-06      -3.85807543e-06 
      -1.25782588e-07       2.13355913e-06      -4.49827303e-06 
      -3.51066987e-07       2.13355896e-06      -4.50020018e-06 
       1.24715080e-07       2.13548685e-06      -4.50020097e-06 
       3.49999479e-07       2.13548702e-06      -4.49827382e-06 
      -1.25782588e-07       2.13355913e-06      -4.49827303e-06 
      -3.51066987e-07       2.13355896e-06      -4.50020018e-06 
       1.24715080e-07       2.13548685e-06      -4.50020097e-06 
       3.49999479e-07       2.13548702e-06      -4.49827382e-06 
      -1.34149557e-07       2.45757340e-06      -5.18278605e-06 
      -3.74236344e-07       2.45757320e-06      -5.18484909e-06 
       1.33020919e-07       2.45963709e-06      -5.18484999e-06 
       3.73107707e-07       2.45963729e-06      -5.18278694e-06 
      -1.34149557e-07       2.45757340e-06      -5.18278605e-06 
      -3.74236344e-07       2.45757320e-06      -5.18484909e-06 
       1.33020919e-07       2.45963709e-06      -5.18484999e-06 
       3.73107707e-07       2.45963729e-06      -5.18278694e-06 
      -1.42340420e-07       2.80196561e-06      -5.91065039e-06 
      -3.96890425e-07       2.80196539e-06      -5.91284934e-06 
       1.41150256e-07       2.80416528e-06      -5.91285034e-06 
       3.95700262e-07       2.80416551e-06      -5.91065140e-06 
      -1.42340420e-07       2.80196561e-06      -5.91065039e-06 
      -3.96890425e-07       2.80196539e-06      -5.91284934e-06 
       1.41150256e-07       2.80416528e-06      -5.91285034e-06 
       3.95700262e-07       2.80416551e-06      -5.91065140e-06 
      -1.50355172e-07       3.16626344e-06      -6.68090269e-06 
      -4.19029226e-07       3.16626319e-06      -6.68323753e-06 
       1.49103096e-07       3.16859909e-06      -6.68323865e-06 
       4.17777149e-07       3.16859934e-06      -6.68090381e-06 
      -1.50355172e-07       3.16626344e-06      -6.68090269e-06 
      -4.19029226e-07       3.16626319e-06      -6.68323753e-06 
       1.49103096e-07       3.16859909e-06      -6.68323865e-06 
       4.17777149e-07       3.16859934e-06      -6.68090381e-06 
      -1.58193809e-07       3.54999455e-06      -7.49257955e-06 
      -4.40652739e-07       3.54999427e-06      -7.49505028e-06 
       1.56879444e-07       3.55246618e-06      -7.49505153e-06 
       4.39338374e-07       3.55246646e-06      -7.49258079e-06 
      -1.58193809e-07       3.54999455e-06      -7.49257955e-06 
      -4.40652739e-07       3.54999427e-06      -7.49505028e-06 
       1.56879444e-07       3.55246618e-06      -7.49505153e-06 
       4.39338374e-07       3.55246646e-06      -7.49258079e-06 
      -1.65856326e-07       3.95268660e-06      -8.34471758e-06 
      -4.61760962e-07       3.95268630e-06      -8.34732422e-06 
       1.64479304e-07       3.95529422e-06      -8.34732558e-06 
       4.60383940e-07       3.95529452e-06      -8.34471895e-06 
      -1.65856326e-07       3.95268660e-06      -8.34471758e-06 
      -4.61760962e-07       3.95268630e-06      -8.34732422e-06 
       1.64479304e-07       3.95529422e-06      -8.34732558e-06 
       4.60383940e-07       3.95529452e-06      -8.34471895e-06 
      -1.73342719e-07       4.37386726e-06      -9.23635342e-06 
      -4.82353891e-07       4.37386693e-06      -9.23909594e-06 
       1.71902681e-07       4.37661086e-06      -9.23909743e-06 
       4.80913853e-07       4.37661119e-06      -9.23635491e-06 
      -1.73342719e-07       4.37386726e-06      -9.23635342e-06 
      -4.82353891e-07       4.37386693e-06      -9.23909594e-06 
       1.71902681e-07       4.37661086e-06      -9.23909743e-06 
       4.80913853e-07       4.37661119e-06      -9.23635491e-06 
      -1.80652984e-07       4.81306418e-06      -1.01665237e-05 
      -5.02431520e-07       4.81306382e-06      -1.01694021e-05 
       1.79149578e-07       4.81594377e-06      -1.01694037e-05 
       5.00928114e-07       4.81594413e-06      -1.01665253e-05 
      -1.80652984e-07       4.81306418e-06      -1.01665237e-05 
      -5.02431520e-07       4.81306382e-06      -1.01694021e-05 
       1.79149578e-07       4.81594377e-06      -1.01694037e-05 
       5.00928114e-07       4.81594413e-06      -1.01665253e-05 
      -1.87784701e-07       5.26982223e-06      -1.11342894e-05 
      -5.22011284e-07       5.26982184e-06      -1.11372877e-05 
       1.86238715e-07       5.27282177e-06      -1.11372894e-05 
       5.20465298e-07       5.27282216e-06      -1.11342911e-05 
      -1.87784701e-07       5.26982223e-06      -1.11342894e-05 
      -5.22011284e-07       5.26982184e-06      -1.11372877e-05 
       1.86238715e-07       5.27282177e-06      -1.11372894e-05 
       5.20465298e-07       5.27282216e-06      -1.11342911e-05 
      -1.94757972e-07       5.74370743e-06      -1.21387655e-05 
      -5.41133522e-07       5.74370701e-06      -1.21418837e-05 
       1.93168904e-07       5.74682694e-06      -1.21418855e-05 
       5.39544454e-07       5.74682736e-06      -1.21387674e-05 
      -1.94757972e-07       5.74370743e-06      -1.21387655e-05 
      -5.41133522e-07       5.74370701e-06      -1.21418837e-05 
       1.93168904e-07       5.74682694e-06      -1.21418855e-05 
       5.39544454e-07       5.74682736e-06      -1.21387674e-05 
      -2.01572789e-07       6.23430329e-06      -1.31790935e-05 
      -5.59798226e-07       6.23430284e-06      -1.31823316e-05 
       1.99940151e-07       6.23754276e-06      -1.31823336e-05 
       5.58165588e-07       6.23754320e-06      -1.31790955e-05 
      -2.01572789e-07       6.23430329e-06      -1.31790935e-05 
      -5.59798226e-07       6.23430284e-06      -1.31823316e-05 
       1.99940151e-07       6.23754276e-06      -1.31823336e-05 
       5.58165588e-07       6.23754320e-06      -1.31790955e-05 
      -2.08229149e-07       6.74119329e-06      -1.42544150e-05 
      -5.78005395e-07       6.74119282e-06      -1.42577729e-05 
       2.06552459e-07       6.74455273e-06      -1.42577750e-05 
       5.76328705e-07       6.74455321e-06      -1.42544171e-05 
      -2.08229149e-07       6.74119329e-06      -1.42544150e-05 
      -5.78005395e-07       6.74119282e-06      -1.42577729e-05 
       2.06552459e-07       6.74455273e-06      -1.42577750e-05 
       5.76328705e-07       6.74455321e-06      -1.42544171e-05 
      -2.14727045e-07       7.26396095e-06      -1.53638713e-05 
      -5.95755020e-07       7.26396044e-06      -1.53673490e-05 
       2.13005835e-07       7.26744035e-06      -1.53673513e-05 
       5.94033810e-07       7.26744085e-06      -1.53638735e-05 
      -2.14727045e-07       7.26396095e-06      -1.53638713e-05 
      -5.95755020e-07       7.26396044e-06      -1.53673490e-05 
       2.13005835e-07       7.26744035e-06      -1.53673513e-05 
       5.94033810e-07       7.26744085e-06      -1.53638735e-05 
      -2.21066471e-07       7.80218975e-06      -1.65066039e-05 
      -6.13047094e-07       7.80218921e-06      -1.65102015e-05 
       2.19300287e-07       7.80578911e-06      -1.65102040e-05 
       6.11280910e-07       7.80578964e-06      -1.65066063e-05 
      -2.21066471e-07       7.80218975e-06      -1.65066039e-05 
      -6.13047094e-07       7.80218921e-06      -1.65102015e-05 
       2.19300287e-07       7.80578911e-06      -1.65102040e-05 
       6.11280910e-07       7.80578964e-06      -1.65066063e-05 
      -2.27247421e-07       8.35546318e-06      -1.76817544e-05 
      -6.29881614e-07       8.35546262e-06      -1.76854719e-05 
       2.25435818e-07       8.35918251e-06      -1.76854745e-05 
       6.28070011e-07       8.35918307e-06      -1.76817570e-05 
      -2.27247421e-07       8.35546318e-06      -1.76817544e-05 
      -6.29881614e-07       8.35546262e-06      -1.76854719e-05 
       2.25435818e-07       8.35918251e-06      -1.76854745e-05 
       6.28070011e-07       8.35918307e-06      -1.76817570e-05 
      -2.33269888e-07       8.92336475e-06      -1.88884642e-05 
      -6.46258570e-07       8.92336415e-06      -1.88923016e-05 
       2.31412439e-07       8.92720404e-06      -1.88923043e-05 
       6.44401120e-07       8.92720463e-06      -1.88884669e-05 
      -2.33269888e-07       8.92336475e-06      -1.88884642e-05 
      -6.46258570e-07       8.92336415e-06      -1.88923016e-05 
       2.31412439e-07       8.92720404e-06      -1.88923043e-05 
       6.44401120e-07       8.92720463e-06      -1.88884669e-05 
      -2.39133868e-07       9.50547794e-06      -2.01258749e-05 
      -6.62177960e-07       9.50547732e-06      -2.01298321e-05 
       2.37230148e-07       9.50943720e-06      -2.01298349e-05 
       6.60274241e-07       9.50943782e-06      -2.01258777e-05 
      -2.39133868e-07       9.50547794e-06      -2.01258749e-05 
      -6.62177960e-07       9.50547732e-06      -2.01298321e-05 
       2.37230148e-07       9.50943720e-06      -2.01298349e-05 
       6.60274241e-07       9.50943782e-06      -2.01258777e-05 
      -2.44839354e-07       1.01013863e-05      -2.13931278e-05 
      -6.77639777e-07       1.01013856e-05      -2.13972049e-05 
       2.42888957e-07       1.01054655e-05      -2.13972078e-05 
       6.75689380e-07       1.01054661e-05      -2.13931307e-05 
      -2.44839354e-07       1.01013863e-05      -2.13931278e-05 
      -6.77639777e-07       1.01013856e-05      -2.13972049e-05 
       2.42888957e-07       1.01054655e-05      -2.13972078e-05 
       6.75689380e-07       1.01054661e-05      -2.13931307e-05 
      -2.50387834e-07       1.07106905e-05      -2.26893896e-05 
      -6.92665560e-07       1.07106898e-05      -2.26935706e-05 
       2.48404851e-07       1.07148737e-05      -2.26935737e-05 
       6.90682578e-07       1.07148743e-05      -2.26893927e-05 
      -2.50387834e-07       1.07106905e-05      -2.26893896e-05 
      -6.92665560e-07       1.07106898e-05      -2.26935706e-05 
       2.48404851e-07       1.07148737e-05      -2.26935737e-05 
       6.90682578e-07       1.07148743e-05      -2.26893927e-05 
      -2.55796315e-07       1.13330128e-05      -2.40138828e-05 
      -7.07292573e-07       1.13330121e-05      -2.40181676e-05 
       2.53780262e-07       1.13372999e-05      -2.40181708e-05 
       7.05276519e-07       1.13373007e-05      -2.40138860e-05 
      -2.55796315e-07       1.13330128e-05      -2.40138828e-05 
      -7.07292573e-07       1.13330121e-05      -2.40181676e-05 
       2.53780262e-07       1.13372999e-05      -2.40181708e-05 
       7.05276519e-07       1.13373007e-05      -2.40138860e-05 
      -2.61064790e-07       1.19679929e-05      -2.53658563e-05 
      -7.21520808e-07       1.19679922e-05      -2.53702449e-05 
       2.59015195e-07       1.19723840e-05      -2.53702483e-05 
       7.19471211e-07       1.19723847e-05      -2.53658596e-05 
      -2.61064790e-07       1.19679929e-05      -2.53658563e-05 
      -7.21520808e-07       1.19679922e-05      -2.53702449e-05 
       2.59015195e-07       1.19723840e-05      -2.53702483e-05 
       7.19471211e-07       1.19723847e-05      -2.53658596e-05 
      -2.66193255e-07       1.26152704e-05      -2.67445591e-05 
      -7.35350260e-07       1.26152696e-05      -2.67490516e-05 
       2.64109656e-07       1.26197653e-05      -2.67490551e-05 
       7.33266661e-07       1.26197661e-05      -2.67445626e-05 
      -2.66193255e-07       1.26152704e-05      -2.67445591e-05 
      -7.35350260e-07       1.26152696e-05      -2.67490516e-05 
       2.64109656e-07       1.26197653e-05      -2.67490551e-05 
       7.33266661e-07       1.26197661e-05      -2.67445626e-05 
      -2.71181702e-07       1.32744848e-05      -2.81492402e-05 
      -7.48780922e-07       1.32744840e-05      -2.81538366e-05 
       2.69063653e-07       1.32790837e-05      -2.81538402e-05 
       7.46662872e-07       1.32790845e-05      -2.81492438e-05 
      -2.71181702e-07       1.32744848e-05      -2.81492402e-05 
      -7.48780922e-07       1.32744840e-05      -2.81538366e-05 
       2.69063653e-07       1.32790837e-05      -2.81538402e-05 
       7.46662872e-07       1.32790845e-05      -2.81492438e-05 
      -2.76030124e-07       1.39452758e-05      -2.95791488e-05 
      -7.61812787e-07       1.39452750e-05      -2.95838490e-05 
       2.73877191e-07       1.39499787e-05      -2.95838527e-05 
       7.59659854e-07       1.39499795e-05      -2.95791525e-05 
      -2.76030124e-07       1.39452758e-05      -2.95791488e-05 
      -7.61812787e-07       1.39452750e-05      -2.95838490e-05 
       2.73877191e-07       1.39499787e-05      -2.95838527e-05 
       7.59659854e-07       1.39499795e-05      -2.95791525e-05 
      -2.80738516e-07       1.46272831e-05      -3.10335337e-05 
      -7.74445850e-07       1.46272823e-05      -3.10383378e-05 
       2.78550278e-07       1.46320900e-05      -3.10383416e-05 
       7.72257613e-07       1.46320908e-05      -3.10335376e-05 
      -2.80738516e-07       1.46272831e-05      -3.10335337e-05 
      -7.74445850e-07       1.46272823e-05      -3.10383378e-05 
       2.78550278e-07       1.46320900e-05      -3.10383416e-05 
       7.72257613e-07       1.46320908e-05      -3.10335376e-05 
      -2.85306869e-07       1.53201463e-05      -3.25116441e-05 
      -7.86680102e-07       1.53201454e-05      -3.25165520e-05 
       2.83082922e-07       1.53250571e-05      -3.25165560e-05 
       7.84456154e-07       1.53250580e-05      -3.25116481e-05 
      -2.85306869e-07       1.53201463e-05      -3.25116441e-05 
      -7.86680102e-07       1.53201454e-05      -3.25165520e-05 