# vtk DataFile Version 2.0
./output/onsasExample_BladeCantileverBeamPitch_windVel3DDynamic 3D/onsasExample_BladeCantileverBeamPitch_windVel3DDynamic 3D_0175.vtk
ASCII
DATASET UNSTRUCTURED_GRID

POINTS 800 float
      -2.056525e-23      -7.180703e-02      -7.180703e-02 
      -1.810398e-24       7.180703e-02      -7.180703e-02 
       2.056525e-23       7.180703e-02       7.180703e-02 
       1.810398e-24      -7.180703e-02       7.180703e-02 
       2.000000e-01      -7.180702e-02      -7.180706e-02 
       2.000000e-01       7.180705e-02      -7.180706e-02 
       2.000000e-01       7.180705e-02       7.180701e-02 
       2.000000e-01      -7.180702e-02       7.180701e-02 
       2.000000e-01      -7.180702e-02      -7.180706e-02 
       2.000000e-01       7.180705e-02      -7.180706e-02 
       2.000000e-01       7.180705e-02       7.180701e-02 
       2.000000e-01      -7.180702e-02       7.180701e-02 
       4.000000e-01      -7.180698e-02      -7.180713e-02 
       3.999999e-01       7.180709e-02      -7.180713e-02 
       4.000000e-01       7.180709e-02       7.180694e-02 
       4.000001e-01      -7.180698e-02       7.180694e-02 
       4.000000e-01      -7.180698e-02      -7.180713e-02 
       3.999999e-01       7.180709e-02      -7.180713e-02 
       4.000000e-01       7.180709e-02       7.180694e-02 
       4.000001e-01      -7.180698e-02       7.180694e-02 
       6.000000e-01      -7.180691e-02      -7.180725e-02 
       5.999999e-01       7.180716e-02      -7.180725e-02 
       6.000000e-01       7.180716e-02       7.180682e-02 
       6.000001e-01      -7.180691e-02       7.180682e-02 
       6.000000e-01      -7.180691e-02      -7.180725e-02 
       5.999999e-01       7.180716e-02      -7.180725e-02 
       6.000000e-01       7.180716e-02       7.180682e-02 
       6.000001e-01      -7.180691e-02       7.180682e-02 
       8.000000e-01      -7.180682e-02      -7.180741e-02 
       7.999999e-01       7.180725e-02      -7.180742e-02 
       8.000000e-01       7.180725e-02       7.180665e-02 
       8.000001e-01      -7.180682e-02       7.180665e-02 
       8.000000e-01      -7.180682e-02      -7.180741e-02 
       7.999999e-01       7.180725e-02      -7.180742e-02 
       8.000000e-01       7.180725e-02       7.180665e-02 
       8.000001e-01      -7.180682e-02       7.180665e-02 
       1.000000e+00      -7.180670e-02      -7.180763e-02 
       9.999999e-01       7.180737e-02      -7.180763e-02 
       1.000000e+00       7.180737e-02       7.180644e-02 
       1.000000e+00      -7.180670e-02       7.180644e-02 
       1.000000e+00      -7.180670e-02      -7.180763e-02 
       9.999999e-01       7.180737e-02      -7.180763e-02 
       1.000000e+00       7.180737e-02       7.180644e-02 
       1.000000e+00      -7.180670e-02       7.180644e-02 
       1.200000e+00      -7.180655e-02      -7.180788e-02 
       1.200000e+00       7.180751e-02      -7.180788e-02 
       1.200000e+00       7.180752e-02       7.180618e-02 
       1.200000e+00      -7.180655e-02       7.180619e-02 
       1.200000e+00      -7.180655e-02      -7.180788e-02 
       1.200000e+00       7.180751e-02      -7.180788e-02 
       1.200000e+00       7.180752e-02       7.180618e-02 
       1.200000e+00      -7.180655e-02       7.180619e-02 
       1.400000e+00      -7.180638e-02      -7.180818e-02 
       1.400000e+00       7.180768e-02      -7.180818e-02 
       1.400000e+00       7.180769e-02       7.180589e-02 
       1.400000e+00      -7.180638e-02       7.180589e-02 
       1.400000e+00      -7.180638e-02      -7.180818e-02 
       1.400000e+00       7.180768e-02      -7.180818e-02 
       1.400000e+00       7.180769e-02       7.180589e-02 
       1.400000e+00      -7.180638e-02       7.180589e-02 
       1.600000e+00      -7.180619e-02      -7.180852e-02 
       1.600000e+00       7.180788e-02      -7.180852e-02 
       1.600000e+00       7.180788e-02       7.180555e-02 
       1.600000e+00      -7.180619e-02       7.180555e-02 
       1.600000e+00      -7.180619e-02      -7.180852e-02 
       1.600000e+00       7.180788e-02      -7.180852e-02 
       1.600000e+00       7.180788e-02       7.180555e-02 
       1.600000e+00      -7.180619e-02       7.180555e-02 
       1.800000e+00      -7.180597e-02      -7.180890e-02 
       1.800000e+00       7.180810e-02      -7.180890e-02 
       1.800000e+00       7.180810e-02       7.180516e-02 
       1.800000e+00      -7.180597e-02       7.180517e-02 
       1.800000e+00      -7.180597e-02      -7.180890e-02 
       1.800000e+00       7.180810e-02      -7.180890e-02 
       1.800000e+00       7.180810e-02       7.180516e-02 
       1.800000e+00      -7.180597e-02       7.180517e-02 
       2.000000e+00      -7.180573e-02      -7.180932e-02 
       2.000000e+00       7.180834e-02      -7.180932e-02 
       2.000000e+00       7.180834e-02       7.180474e-02 
       2.000000e+00      -7.180573e-02       7.180474e-02 
       2.000000e+00      -7.180573e-02      -7.180932e-02 
       2.000000e+00       7.180834e-02      -7.180932e-02 
       2.000000e+00       7.180834e-02       7.180474e-02 
       2.000000e+00      -7.180573e-02       7.180474e-02 
       2.200000e+00      -7.180547e-02      -7.180978e-02 
       2.200000e+00       7.180860e-02      -7.180979e-02 
       2.200000e+00       7.180860e-02       7.180428e-02 
       2.200000e+00      -7.180546e-02       7.180428e-02 
       2.200000e+00      -7.180547e-02      -7.180978e-02 
       2.200000e+00       7.180860e-02      -7.180979e-02 
       2.200000e+00       7.180860e-02       7.180428e-02 
       2.200000e+00      -7.180546e-02       7.180428e-02 
       2.400000e+00      -7.180518e-02      -7.181028e-02 
       2.400000e+00       7.180889e-02      -7.181029e-02 
       2.400000e+00       7.180889e-02       7.180378e-02 
       2.400000e+00      -7.180518e-02       7.180378e-02 
       2.400000e+00      -7.180518e-02      -7.181028e-02 
       2.400000e+00       7.180889e-02      -7.181029e-02 
       2.400000e+00       7.180889e-02       7.180378e-02 
       2.400000e+00      -7.180518e-02       7.180378e-02 
       2.600000e+00      -7.180487e-02      -7.181082e-02 
       2.600000e+00       7.180919e-02      -7.181082e-02 
       2.600000e+00       7.180919e-02       7.180324e-02 
       2.600000e+00      -7.180487e-02       7.180325e-02 
       2.600000e+00      -7.180487e-02      -7.181082e-02 
       2.600000e+00       7.180919e-02      -7.181082e-02 
       2.600000e+00       7.180919e-02       7.180324e-02 
       2.600000e+00      -7.180487e-02       7.180325e-02 
       2.800000e+00      -7.180455e-02      -7.181140e-02 
       2.800000e+00       7.180952e-02      -7.181140e-02 
       2.800000e+00       7.180952e-02       7.180267e-02 
       2.800000e+00      -7.180454e-02       7.180267e-02 
       2.800000e+00      -7.180455e-02      -7.181140e-02 
       2.800000e+00       7.180952e-02      -7.181140e-02 
       2.800000e+00       7.180952e-02       7.180267e-02 
       2.800000e+00      -7.180454e-02       7.180267e-02 
       3.000000e+00      -7.180420e-02      -7.181200e-02 
       3.000000e+00       7.180987e-02      -7.181201e-02 
       3.000000e+00       7.180987e-02       7.180206e-02 
       3.000000e+00      -7.180419e-02       7.180206e-02 
       3.000000e+00      -7.180420e-02      -7.181200e-02 
       3.000000e+00       7.180987e-02      -7.181201e-02 
       3.000000e+00       7.180987e-02       7.180206e-02 
       3.000000e+00      -7.180419e-02       7.180206e-02 
       3.200000e+00      -7.180383e-02      -7.181265e-02 
       3.200000e+00       7.181024e-02      -7.181265e-02 
       3.200000e+00       7.181024e-02       7.180141e-02 
       3.200000e+00      -7.180383e-02       7.180142e-02 
       3.200000e+00      -7.180383e-02      -7.181265e-02 
       3.200000e+00       7.181024e-02      -7.181265e-02 
       3.200000e+00       7.181024e-02       7.180141e-02 
       3.200000e+00      -7.180383e-02       7.180142e-02 
       3.400000e+00      -7.180344e-02      -7.181333e-02 
       3.400000e+00       7.181063e-02      -7.181333e-02 
       3.400000e+00       7.181063e-02       7.180074e-02 
       3.400000e+00      -7.180344e-02       7.180074e-02 
       3.400000e+00      -7.180344e-02      -7.181333e-02 
       3.400000e+00       7.181063e-02      -7.181333e-02 
       3.400000e+00       7.181063e-02       7.180074e-02 
       3.400000e+00      -7.180344e-02       7.180074e-02 
       3.600000e+00      -7.180303e-02      -7.181404e-02 
       3.600000e+00       7.181103e-02      -7.181404e-02 
       3.600000e+00       7.181104e-02       7.180002e-02 
       3.600000e+00      -7.180303e-02       7.180003e-02 
       3.600000e+00      -7.180303e-02      -7.181404e-02 
       3.600000e+00       7.181103e-02      -7.181404e-02 
       3.600000e+00       7.181104e-02       7.180002e-02 
       3.600000e+00      -7.180303e-02       7.180003e-02 
       3.800000e+00      -7.180260e-02      -7.181479e-02 
       3.800000e+00       7.181146e-02      -7.181479e-02 
       3.800000e+00       7.181146e-02       7.179928e-02 
       3.800000e+00      -7.180260e-02       7.179928e-02 
       3.800000e+00      -7.180260e-02      -7.181479e-02 
       3.800000e+00       7.181146e-02      -7.181479e-02 
       3.800000e+00       7.181146e-02       7.179928e-02 
       3.800000e+00      -7.180260e-02       7.179928e-02 
       4.000000e+00      -7.180216e-02      -7.181556e-02 
       4.000000e+00       7.181191e-02      -7.181556e-02 
       4.000000e+00       7.181191e-02       7.179850e-02 
       4.000000e+00      -7.180216e-02       7.179850e-02 
       4.000000e+00      -7.180216e-02      -7.181556e-02 
       4.000000e+00       7.181191e-02      -7.181556e-02 
       4.000000e+00       7.181191e-02       7.179850e-02 
       4.000000e+00      -7.180216e-02       7.179850e-02 
       4.200000e+00      -7.180170e-02      -7.181637e-02 
[...]
POINT_DATA       800 
VECTORS Displacements float
      -2.05652536e-23       0.00000000e+00      -1.38777878e-17 
      -1.81039823e-24       0.00000000e+00       0.00000000e+00 
       2.05652536e-23       0.00000000e+00       1.38777878e-17 
       1.81039823e-24       0.00000000e+00       0.00000000e+00 
      -7.57386556e-09       1.37621352e-08      -2.42907847e-08 
      -2.73835221e-08       1.37621338e-08      -2.44419325e-08 
       7.49333512e-09       1.39132865e-08      -2.44419367e-08 
       2.73029916e-08       1.39132878e-08      -2.42907889e-08 
      -7.57386556e-09       1.37621352e-08      -2.42907847e-08 
      -2.73835221e-08       1.37621338e-08      -2.44419325e-08 
       7.49333512e-09       1.39132865e-08      -2.44419367e-08 
       2.73029916e-08       1.39132878e-08      -2.42907889e-08 
      -1.49875363e-08       5.48474012e-08      -9.66644114e-08 
      -5.42273974e-08       5.48473959e-08      -9.69667025e-08 
       1.48263296e-08       5.51497058e-08      -9.69667191e-08 
       5.40661907e-08       5.51497112e-08      -9.66644280e-08 
      -1.49875363e-08       5.48474012e-08      -9.66644114e-08 
      -5.42273974e-08       5.48473959e-08      -9.69667025e-08 
       1.48263296e-08       5.51497058e-08      -9.69667191e-08 
       5.40661907e-08       5.51497112e-08      -9.66644280e-08 
      -2.22410106e-08       1.22727365e-07      -2.16146063e-07 
      -8.05316240e-08       1.22727353e-07      -2.16599493e-07 
       2.19989850e-08       1.23180825e-07      -2.16599529e-07 
       8.02895985e-08       1.23180837e-07      -2.16146100e-07 
      -2.22410106e-08       1.22727365e-07      -2.16146063e-07 
      -8.05316240e-08       1.22727353e-07      -2.16599493e-07 
       2.19989850e-08       1.23180825e-07      -2.16599529e-07 
       8.02895985e-08       1.23180837e-07      -2.16146100e-07 
      -2.93342873e-08       2.16873594e-07      -3.81760922e-07 
      -1.06296201e-07       2.16873573e-07      -3.82365487e-07 
       2.90113027e-08       2.17478211e-07      -3.82365550e-07 
       1.05973217e-07       2.17478231e-07      -3.81760986e-07 
      -2.93342873e-08       2.16873594e-07      -3.81760922e-07 
      -1.06296201e-07       2.16873573e-07      -3.82365487e-07 
       2.90113027e-08       2.17478211e-07      -3.82365550e-07 
       1.05973217e-07       2.17478231e-07      -3.81760986e-07 
      -3.62673647e-08       3.36757655e-07      -5.92534171e-07 
      -1.31521127e-07       3.36757623e-07      -5.93289867e-07 
       3.58632839e-08       3.37513430e-07      -5.93289964e-07 
       1.31117046e-07       3.37513461e-07      -5.92534268e-07 
      -3.62673647e-08       3.36757655e-07      -5.92534171e-07 
      -1.31521127e-07       3.36757623e-07      -5.93289867e-07 
       3.58632839e-08       3.37513430e-07      -5.93289964e-07 
       1.31117046e-07       3.37513461e-07      -5.92534268e-07 
      -4.30402414e-08       4.81851114e-07      -8.47490993e-07 
      -1.56206400e-07       4.81851070e-07      -8.48397816e-07 
       4.25549307e-08       4.82758049e-07      -8.48397953e-07 
       1.55721089e-07       4.82758094e-07      -8.47491130e-07 
      -4.30402414e-08       4.81851114e-07      -8.47490993e-07 
      -1.56206400e-07       4.81851070e-07      -8.48397816e-07 
       4.25549307e-08       4.82758049e-07      -8.48397953e-07 
       1.55721089e-07       4.82758094e-07      -8.47491130e-07 
      -4.96529160e-08       6.51625540e-07      -1.14565657e-06 
      -1.80352019e-07       6.51625481e-07      -1.14671452e-06 
       4.90862440e-08       6.52683637e-07      -1.14671470e-06 
       1.79785347e-07       6.52683696e-07      -1.14565675e-06 
      -4.96529160e-08       6.51625540e-07      -1.14565657e-06 
      -1.80352019e-07       6.51625481e-07      -1.14671452e-06 
       4.90862440e-08       6.52683637e-07      -1.14671470e-06 
       1.79785347e-07       6.52683696e-07      -1.14565675e-06 
      -5.61053870e-08       8.45552499e-07      -1.48605608e-06 
      -2.03957982e-07       8.45552423e-07      -1.48726515e-06 
       5.54572255e-08       8.46761758e-07      -1.48726539e-06 
       2.03309820e-07       8.46761834e-07      -1.48605632e-06 
      -5.61053870e-08       8.45552499e-07      -1.48605608e-06 
      -2.03957982e-07       8.45552423e-07      -1.48726515e-06 
       5.54572255e-08       8.46761758e-07      -1.48726539e-06 
       2.03309820e-07       8.46761834e-07      -1.48605632e-06 
      -6.23976530e-08       1.06310356e-06      -1.86771472e-06 
      -2.27024288e-07       1.06310346e-06      -1.86907491e-06 
       6.16678764e-08       1.06446398e-06      -1.86907520e-06 
       2.26294511e-07       1.06446407e-06      -1.86771501e-06 
      -6.23976530e-08       1.06310356e-06      -1.86771472e-06 
      -2.27024288e-07       1.06310346e-06      -1.86907491e-06 
       6.16678764e-08       1.06446398e-06      -1.86907520e-06 
       2.26294511e-07       1.06446407e-06      -1.86771501e-06 
      -6.85297119e-08       1.30375028e-06      -2.28965766e-06 
      -2.49550935e-07       1.30375017e-06      -2.29116896e-06 
       6.77181990e-08       1.30526187e-06      -2.29116931e-06 
       2.48739422e-07       1.30526198e-06      -2.28965801e-06 
      -6.85297121e-08       1.30375028e-06      -2.28965766e-06 
      -2.49550935e-07       1.30375017e-06      -2.29116896e-06 
       6.77181986e-08       1.30526187e-06      -2.29116931e-06 
       2.48739422e-07       1.30526198e-06      -2.28965801e-06 
      -7.44966080e-08       1.56698111e-06      -2.75093539e-06 
      -2.71552243e-07       1.56698097e-06      -2.75258180e-06 
       7.36317824e-08       1.56862786e-06      -2.75258222e-06 
       2.70687418e-07       1.56862800e-06      -2.75093580e-06 
      -7.44966080e-08       1.56698111e-06      -2.75093539e-06 
      -2.71552243e-07       1.56698097e-06      -2.75258180e-06 
       7.36317824e-08       1.56862786e-06      -2.75258222e-06 
       2.70687418e-07       1.56862800e-06      -2.75093580e-06 
      -8.03229341e-08       1.85230492e-06      -3.25065514e-06 
      -2.93072810e-07       1.85230477e-06      -3.25243667e-06 
       7.94044785e-08       1.85408685e-06      -3.25243715e-06 
       2.92154354e-07       1.85408701e-06      -3.25065562e-06 
      -8.03229341e-08       1.85230492e-06      -3.25065514e-06 
      -2.93072810e-07       1.85230477e-06      -3.25243667e-06 
       7.94044785e-08       1.85408685e-06      -3.25243715e-06 
       2.92154354e-07       1.85408701e-06      -3.25065562e-06 
      -8.60086877e-08       2.15924801e-06      -3.78795122e-06 
      -3.14112633e-07       2.15924783e-06      -3.78986786e-06 
       8.50362900e-08       2.16116510e-06      -3.78986841e-06 
       3.13140235e-07       2.16116528e-06      -3.78795177e-06 
      -8.60086877e-08       2.15924801e-06      -3.78795122e-06 
      -3.14112633e-07       2.15924783e-06      -3.78986786e-06 
       8.50362900e-08       2.16116510e-06      -3.78986841e-06 
       3.13140235e-07       2.16116528e-06      -3.78795177e-06 
      -9.15538654e-08       2.48733663e-06      -4.36195794e-06 
      -3.34671707e-07       2.48733642e-06      -4.36400969e-06 
       9.05272213e-08       2.48938889e-06      -4.36401032e-06 
       3.33645063e-07       2.48938910e-06      -4.36195857e-06 
      -9.15538654e-08       2.48733663e-06      -4.36195794e-06 
      -3.34671707e-07       2.48733642e-06      -4.36400969e-06 
       9.05272213e-08       2.48938889e-06      -4.36401032e-06 
       3.33645063e-07       2.48938910e-06      -4.36195857e-06 
      -9.69584635e-08       2.83609706e-06      -4.97180960e-06 
      -3.54750030e-07       2.83609682e-06      -4.97399646e-06 
       9.58772750e-08       2.83828449e-06      -4.97399717e-06 
       3.53668841e-07       2.83828472e-06      -4.97181031e-06 
      -9.69584635e-08       2.83609706e-06      -4.97180960e-06 
      -3.54750030e-07       2.83609682e-06      -4.97399646e-06 
       9.58772750e-08       2.83828449e-06      -4.97399717e-06 
       3.53668841e-07       2.83828472e-06      -4.97181031e-06 
      -1.02222478e-07       3.20505556e-06      -5.61664052e-06 
      -3.74347597e-07       3.20505530e-06      -5.61896248e-06 
       1.01086455e-07       3.20737816e-06      -5.61896327e-06 
       3.73211574e-07       3.20737842e-06      -5.61664131e-06 
      -1.02222478e-07       3.20505556e-06      -5.61664052e-06 
      -3.74347597e-07       3.20505530e-06      -5.61896248e-06 
       1.01086455e-07       3.20737816e-06      -5.61896327e-06 
       3.73211574e-07       3.20737842e-06      -5.61664131e-06 
      -1.07345906e-07       3.59373840e-06      -6.29558499e-06 
      -3.93464406e-07       3.59373811e-06      -6.29804206e-06 
       1.06154765e-07       3.59619618e-06      -6.29804293e-06 
       3.92273265e-07       3.59619646e-06      -6.29558586e-06 
      -1.07345906e-07       3.59373840e-06      -6.29558499e-06 
      -3.93464406e-07       3.59373811e-06      -6.29804206e-06 
       1.06154765e-07       3.59619618e-06      -6.29804293e-06 
       3.92273265e-07       3.59619646e-06      -6.29558586e-06 
      -1.12328744e-07       4.00167186e-06      -7.00777733e-06 
      -4.12100453e-07       4.00167154e-06      -7.01036950e-06 
       1.11082208e-07       4.00426480e-06      -7.01037045e-06 
       4.10853918e-07       4.00426512e-06      -7.00777828e-06 
      -1.12328744e-07       4.00167186e-06      -7.00777733e-06 
      -4.12100453e-07       4.00167154e-06      -7.01036950e-06 
       1.11082208e-07       4.00426480e-06      -7.01037045e-06 
       4.10853918e-07       4.00426512e-06      -7.00777828e-06 
      -1.17170988e-07       4.42838219e-06      -7.75235184e-06 
      -4.30255733e-07       4.42838185e-06      -7.75507911e-06 
       1.15868789e-07       4.43111032e-06      -7.75508015e-06 
       4.28953535e-07       4.43111066e-06      -7.75235287e-06 
      -1.17170988e-07       4.42838219e-06      -7.75235184e-06 
      -4.30255733e-07       4.42838185e-06      -7.75507911e-06 
       1.15868789e-07       4.43111032e-06      -7.75508015e-06 
       4.28953535e-07       4.43111066e-06      -7.75235287e-06 
      -1.21872633e-07       4.87339569e-06      -8.52844282e-06 
      -4.47930245e-07       4.87339532e-06      -8.53130519e-06 
       1.20514510e-07       4.87625898e-06      -8.53130632e-06 
       4.46572122e-07       4.87625935e-06      -8.52844395e-06 
      -1.21872633e-07       4.87339569e-06      -8.52844282e-06 
      -4.47930245e-07       4.87339532e-06      -8.53130519e-06 
       1.20514510e-07       4.87625898e-06      -8.53130632e-06 
       4.46572122e-07       4.87625935e-06      -8.52844395e-06 
      -1.26433572e-07       5.33625566e-06      -9.33521090e-06 
      -4.65143522e-07       5.33625526e-06      -9.33819239e-06 
       1.25039373e-07       5.33923814e-06      -9.33819360e-06 
       4.63749322e-07       5.33923854e-06      -9.33521211e-06 
      -1.26433572e-07       5.33625566e-06      -9.33521090e-06 
      -4.65143522e-07       5.33625526e-06      -9.33819239e-06 
       1.25039373e-07       5.33923814e-06      -9.33819360e-06 
       4.63749322e-07       5.33923854e-06      -9.33521211e-06 
      -1.30873808e-07       5.81652633e-06      -1.01718744e-05 
      -4.81935619e-07       5.81652590e-06      -1.01749750e-05 
       1.29443160e-07       5.81962800e-06      -1.01749763e-05 
       4.80504973e-07       5.81962842e-06      -1.01718757e-05 
      -1.30873808e-07       5.81652633e-06      -1.01718744e-05 
      -4.81935619e-07       5.81652590e-06      -1.01749750e-05 
       1.29443160e-07       5.81962800e-06      -1.01749763e-05 
       4.80504973e-07       5.81962842e-06      -1.01718757e-05 
      -1.35193335e-07       6.31378923e-06      -1.10376782e-05 
      -4.98306533e-07       6.31378877e-06      -1.10408979e-05 
       1.33725879e-07       6.31701009e-06      -1.10408993e-05 
       4.96839077e-07       6.31701055e-06      -1.10376795e-05 
      -1.35193335e-07       6.31378923e-06      -1.10376782e-05 
      -4.98306533e-07       6.31378877e-06      -1.10408979e-05 
       1.33725879e-07       6.31701009e-06      -1.10408993e-05 
       4.96839077e-07       6.31701055e-06      -1.10376795e-05 
      -1.39392151e-07       6.82762593e-06      -1.19318670e-05 
      -5.14256259e-07       6.82762544e-06      -1.19352059e-05 
       1.37887532e-07       6.83096597e-06      -1.19352073e-05 
       5.12751639e-07       6.83096646e-06      -1.19318685e-05 
      -1.39392151e-07       6.82762593e-06      -1.19318670e-05 
      -5.14256259e-07       6.82762544e-06      -1.19352059e-05 
       1.37887532e-07       6.83096597e-06      -1.19352073e-05 
       5.12751639e-07       6.83096646e-06      -1.19318685e-05 
      -1.43470252e-07       7.35761796e-06      -1.28536859e-05 
      -5.29784792e-07       7.35761744e-06      -1.28571438e-05 
       1.41928123e-07       7.36107719e-06      -1.28571454e-05 
       5.28242664e-07       7.36107771e-06      -1.28536874e-05 
      -1.43470252e-07       7.35761796e-06      -1.28536859e-05 
      -5.29784792e-07       7.35761744e-06      -1.28571438e-05 
       1.41928123e-07       7.36107719e-06      -1.28571454e-05 
       5.28242664e-07       7.36107771e-06      -1.28536874e-05 
      -1.47427630e-07       7.90334689e-06      -1.38023795e-05 
      -5.44892128e-07       7.90334634e-06      -1.38059565e-05 
       1.45847658e-07       7.90692531e-06      -1.38059582e-05 
       5.43312155e-07       7.90692586e-06      -1.38023812e-05 
      -1.47427630e-07       7.90334689e-06      -1.38023795e-05 
      -5.44892128e-07       7.90334634e-06      -1.38059565e-05 
       1.45847658e-07       7.90692531e-06      -1.38059582e-05 
       5.43312155e-07       7.90692586e-06      -1.38023812e-05 
      -1.51264283e-07       8.46439425e-06      -1.47771928e-05 
      -5.59578261e-07       8.46439367e-06      -1.47808889e-05 
       1.49646143e-07       8.46809186e-06      -1.47808907e-05 
       5.57960121e-07       8.46809244e-06      -1.47771945e-05 
      -1.51264283e-07       8.46439425e-06      -1.47771928e-05 
      -5.59578261e-07       8.46439367e-06      -1.47808889e-05 
       1.49646143e-07       8.46809186e-06      -1.47808907e-05 
       5.57960121e-07       8.46809244e-06      -1.47771945e-05 
      -1.54980205e-07       9.04034161e-06      -1.57773705e-05 
      -5.73843187e-07       9.04034100e-06      -1.57811858e-05 
       1.53323580e-07       9.04415840e-06      -1.57811877e-05 
       5.72186563e-07       9.04415901e-06      -1.57773724e-05 
      -1.54980205e-07       9.04034161e-06      -1.57773705e-05 
      -5.73843187e-07       9.04034100e-06      -1.57811858e-05 
       1.53323580e-07       9.04415840e-06      -1.57811877e-05 
       5.72186563e-07       9.04415901e-06      -1.57773724e-05 
      -1.58575392e-07       9.63077050e-06      -1.68021577e-05 
      -5.87686903e-07       9.63076986e-06      -1.68060921e-05 
       1.56879975e-07       9.63470649e-06      -1.68060940e-05 
       5.85991486e-07       9.63470713e-06      -1.68021596e-05 
      -1.58575392e-07       9.63077050e-06      -1.68021577e-05 
      -5.87686903e-07       9.63076986e-06      -1.68060921e-05 
       1.56879975e-07       9.63470649e-06      -1.68060940e-05 
       5.85991486e-07       9.63470713e-06      -1.68021596e-05 
      -1.62049840e-07       1.02352625e-05      -1.78507990e-05 
      -6.01109401e-07       1.02352618e-05      -1.78548525e-05 
       1.60315333e-07       1.02393177e-05      -1.78548545e-05 
       5.99374895e-07       1.02393183e-05      -1.78508010e-05 
      -1.62049840e-07       1.02352625e-05      -1.78507990e-05 
      -6.01109401e-07       1.02352618e-05      -1.78548525e-05 
       1.60315333e-07       1.02393177e-05      -1.78548545e-05 
       5.99374894e-07       1.02393183e-05      -1.78508010e-05 
      -1.65406867e-07       1.08534163e-05      -1.89225660e-05 
      -6.14133861e-07       1.08534156e-05      -1.89267227e-05 
       1.63646559e-07       1.08575747e-05      -1.89267248e-05 
       6.12373554e-07       1.08575754e-05      -1.89225681e-05 
      -1.65406867e-07       1.08534163e-05      -1.89225660e-05 
      -6.14133861e-07       1.08534156e-05      -1.89267227e-05 
       1.63646559e-07       1.08575747e-05      -1.89267248e-05 
       6.12373554e-07       1.08575754e-05      -1.89225681e-05 
      -1.68662730e-07       1.14848517e-05      -2.00167878e-05 
      -6.26796597e-07       1.14848510e-05      -2.00210476e-05 
       1.66876272e-07       1.14891134e-05      -2.00210498e-05 
       6.25010140e-07       1.14891141e-05      -2.00167900e-05 
      -1.68662730e-07       1.14848517e-05      -2.00167878e-05 
      -6.26796597e-07       1.14848510e-05      -2.00210476e-05 
       1.66876272e-07       1.14891134e-05      -2.00210498e-05 
       6.25010140e-07       1.14891141e-05      -2.00167900e-05 
      -1.71817423e-07       1.21292060e-05      -2.11328192e-05 
      -6.39097603e-07       1.21292052e-05      -2.11371822e-05 
       1.70004476e-07       1.21335708e-05      -2.11371844e-05 
       6.37284655e-07       1.21335716e-05      -2.11328215e-05 
      -1.71817423e-07       1.21292060e-05      -2.11328192e-05 
      -6.39097603e-07       1.21292052e-05      -2.11371822e-05 
       1.70004476e-07       1.21335708e-05      -2.11371844e-05 
       6.37284655e-07       1.21335716e-05      -2.11328215e-05 
      -1.74870944e-07       1.27861161e-05      -2.22700151e-05 
      -6.51036877e-07       1.27861153e-05      -2.22744812e-05 
       1.73031174e-07       1.27905842e-05      -2.22744835e-05 
       6.49197106e-07       1.27905850e-05      -2.22700174e-05 
      -1.74870944e-07       1.27861161e-05      -2.22700151e-05 
      -6.51036877e-07       1.27861153e-05      -2.22744812e-05 
       1.73031174e-07       1.27905842e-05      -2.22744835e-05 
       6.49197106e-07       1.27905850e-05      -2.22700174e-05 
      -1.77823288e-07       1.34552193e-05      -2.34277303e-05 
      -6.62614412e-07       1.34552185e-05      -2.34322996e-05 
       1.75956373e-07       1.34597906e-05      -2.34323020e-05 
       6.60747498e-07       1.34597914e-05      -2.34277328e-05 
      -1.77823288e-07       1.34552193e-05      -2.34277303e-05 
      -6.62614412e-07       1.34552185e-05      -2.34322996e-05 
       1.75956373e-07       1.34597906e-05      -2.34323020e-05 
       6.60747498e-07       1.34597914e-05      -2.34277328e-05 
      -1.80674446e-07       1.41361527e-05      -2.46053198e-05 
      -6.73830203e-07       1.41361519e-05      -2.46099922e-05 
       1.78780076e-07       1.41408272e-05      -2.46099948e-05 
       6.71935833e-07       1.41408281e-05      -2.46053223e-05 
      -1.80674446e-07       1.41361527e-05      -2.46053198e-05 
      -6.73830203e-07       1.41361519e-05      -2.46099922e-05 
       1.78780076e-07       1.41408272e-05      -2.46099948e-05 
       6.71935833e-07       1.41408281e-05      -2.46053223e-05 
      -1.83424417e-07       1.48285534e-05      -2.58021385e-05 
      -6.84684246e-07       1.48285526e-05      -2.58069140e-05 
       1.81502291e-07       1.48333312e-05      -2.58069167e-05 
       6.82762120e-07       1.48333320e-05      -2.58021411e-05 
      -1.83424417e-07       1.48285534e-05      -2.58021385e-05 
      -6.84684246e-07       1.48285526e-05      -2.58069140e-05 
       1.81502291e-07       1.48333312e-05      -2.58069167e-05 
       6.82762120e-07       1.48333320e-05      -2.58021411e-05 
      -1.86073193e-07       1.55320586e-05      -2.70175411e-05 
      -6.95176535e-07       1.55320577e-05      -2.70224199e-05 
       1.84123021e-07       1.55369396e-05      -2.70224226e-05 
       6.93226362e-07       1.55369405e-05      -2.70175438e-05 
      -1.86073193e-07       1.55320586e-05      -2.70175411e-05 
      -6.95176535e-07       1.55320577e-05      -2.70224199e-05 