# vtk DataFile Version 2.0
./output/onsasExample_BladeCantileverBeamPitch_windVel3DDynamic 3D/onsasExample_BladeCantileverBeamPitch_windVel3DDynamic 3D_0176.vtk
ASCII
DATASET UNSTRUCTURED_GRID

POINTS 800 float
       7.939985e-24      -7.180703e-02      -7.180703e-02 
       4.240960e-23       7.180703e-02      -7.180703e-02 
      -7.939985e-24       7.180703e-02       7.180703e-02 
      -4.240960e-23      -7.180703e-02       7.180703e-02 
       2.000000e-01      -7.180702e-02      -7.180706e-02 
       2.000000e-01       7.180705e-02      -7.180706e-02 
       2.000000e-01       7.180705e-02       7.180700e-02 
       2.000000e-01      -7.180702e-02       7.180700e-02 
       2.000000e-01      -7.180702e-02      -7.180706e-02 
       2.000000e-01       7.180705e-02      -7.180706e-02 
       2.000000e-01       7.180705e-02       7.180700e-02 
       2.000000e-01      -7.180702e-02       7.180700e-02 
       4.000000e-01      -7.180698e-02      -7.180715e-02 
       3.999999e-01       7.180709e-02      -7.180715e-02 
       4.000000e-01       7.180709e-02       7.180692e-02 
       4.000001e-01      -7.180698e-02       7.180692e-02 
       4.000000e-01      -7.180698e-02      -7.180715e-02 
       3.999999e-01       7.180709e-02      -7.180715e-02 
       4.000000e-01       7.180709e-02       7.180692e-02 
       4.000001e-01      -7.180698e-02       7.180692e-02 
       6.000000e-01      -7.180691e-02      -7.180729e-02 
       5.999999e-01       7.180715e-02      -7.180729e-02 
       6.000000e-01       7.180715e-02       7.180678e-02 
       6.000001e-01      -7.180691e-02       7.180678e-02 
       6.000000e-01      -7.180691e-02      -7.180729e-02 
       5.999999e-01       7.180715e-02      -7.180729e-02 
       6.000000e-01       7.180715e-02       7.180678e-02 
       6.000001e-01      -7.180691e-02       7.180678e-02 
       8.000000e-01      -7.180682e-02      -7.180748e-02 
       7.999999e-01       7.180725e-02      -7.180748e-02 
       8.000000e-01       7.180725e-02       7.180658e-02 
       8.000001e-01      -7.180682e-02       7.180658e-02 
       8.000000e-01      -7.180682e-02      -7.180748e-02 
       7.999999e-01       7.180725e-02      -7.180748e-02 
       8.000000e-01       7.180725e-02       7.180658e-02 
       8.000001e-01      -7.180682e-02       7.180658e-02 
       9.999999e-01      -7.180670e-02      -7.180773e-02 
       9.999999e-01       7.180737e-02      -7.180773e-02 
       1.000000e+00       7.180737e-02       7.180634e-02 
       1.000000e+00      -7.180670e-02       7.180634e-02 
       9.999999e-01      -7.180670e-02      -7.180773e-02 
       9.999999e-01       7.180737e-02      -7.180773e-02 
       1.000000e+00       7.180737e-02       7.180634e-02 
       1.000000e+00      -7.180670e-02       7.180634e-02 
       1.200000e+00      -7.180656e-02      -7.180803e-02 
       1.200000e+00       7.180751e-02      -7.180803e-02 
       1.200000e+00       7.180751e-02       7.180604e-02 
       1.200000e+00      -7.180656e-02       7.180604e-02 
       1.200000e+00      -7.180656e-02      -7.180803e-02 
       1.200000e+00       7.180751e-02      -7.180803e-02 
       1.200000e+00       7.180751e-02       7.180604e-02 
       1.200000e+00      -7.180656e-02       7.180604e-02 
       1.400000e+00      -7.180639e-02      -7.180838e-02 
       1.400000e+00       7.180768e-02      -7.180838e-02 
       1.400000e+00       7.180768e-02       7.180568e-02 
       1.400000e+00      -7.180639e-02       7.180568e-02 
       1.400000e+00      -7.180639e-02      -7.180838e-02 
       1.400000e+00       7.180768e-02      -7.180838e-02 
       1.400000e+00       7.180768e-02       7.180568e-02 
       1.400000e+00      -7.180639e-02       7.180568e-02 
       1.600000e+00      -7.180620e-02      -7.180878e-02 
       1.600000e+00       7.180787e-02      -7.180878e-02 
       1.600000e+00       7.180787e-02       7.180528e-02 
       1.600000e+00      -7.180620e-02       7.180528e-02 
       1.600000e+00      -7.180620e-02      -7.180878e-02 
       1.600000e+00       7.180787e-02      -7.180878e-02 
       1.600000e+00       7.180787e-02       7.180528e-02 
       1.600000e+00      -7.180620e-02       7.180528e-02 
       1.800000e+00      -7.180598e-02      -7.180923e-02 
       1.800000e+00       7.180808e-02      -7.180924e-02 
       1.800000e+00       7.180809e-02       7.180483e-02 
       1.800000e+00      -7.180598e-02       7.180483e-02 
       1.800000e+00      -7.180598e-02      -7.180923e-02 
       1.800000e+00       7.180808e-02      -7.180924e-02 
       1.800000e+00       7.180809e-02       7.180483e-02 
       1.800000e+00      -7.180598e-02       7.180483e-02 
       2.000000e+00      -7.180574e-02      -7.180973e-02 
       2.000000e+00       7.180832e-02      -7.180973e-02 
       2.000000e+00       7.180832e-02       7.180433e-02 
       2.000000e+00      -7.180574e-02       7.180433e-02 
       2.000000e+00      -7.180574e-02      -7.180973e-02 
       2.000000e+00       7.180832e-02      -7.180973e-02 
       2.000000e+00       7.180832e-02       7.180433e-02 
       2.000000e+00      -7.180574e-02       7.180433e-02 
       2.200000e+00      -7.180548e-02      -7.181028e-02 
       2.200000e+00       7.180858e-02      -7.181028e-02 
       2.200000e+00       7.180858e-02       7.180379e-02 
       2.200000e+00      -7.180548e-02       7.180379e-02 
       2.200000e+00      -7.180548e-02      -7.181028e-02 
       2.200000e+00       7.180858e-02      -7.181028e-02 
       2.200000e+00       7.180858e-02       7.180379e-02 
       2.200000e+00      -7.180548e-02       7.180379e-02 
       2.400000e+00      -7.180520e-02      -7.181087e-02 
       2.400000e+00       7.180887e-02      -7.181087e-02 
       2.400000e+00       7.180887e-02       7.180319e-02 
       2.400000e+00      -7.180520e-02       7.180320e-02 
       2.400000e+00      -7.180520e-02      -7.181087e-02 
       2.400000e+00       7.180887e-02      -7.181087e-02 
       2.400000e+00       7.180887e-02       7.180319e-02 
       2.400000e+00      -7.180520e-02       7.180320e-02 
       2.600000e+00      -7.180490e-02      -7.181151e-02 
       2.600000e+00       7.180917e-02      -7.181151e-02 
       2.600000e+00       7.180917e-02       7.180256e-02 
       2.600000e+00      -7.180490e-02       7.180256e-02 
       2.600000e+00      -7.180490e-02      -7.181151e-02 
       2.600000e+00       7.180917e-02      -7.181151e-02 
       2.600000e+00       7.180917e-02       7.180256e-02 
       2.600000e+00      -7.180490e-02       7.180256e-02 
       2.800000e+00      -7.180457e-02      -7.181219e-02 
       2.800000e+00       7.180949e-02      -7.181219e-02 
       2.800000e+00       7.180950e-02       7.180187e-02 
       2.800000e+00      -7.180457e-02       7.180188e-02 
       2.800000e+00      -7.180457e-02      -7.181219e-02 
       2.800000e+00       7.180949e-02      -7.181219e-02 
       2.800000e+00       7.180950e-02       7.180187e-02 
       2.800000e+00      -7.180457e-02       7.180188e-02 
       3.000000e+00      -7.180423e-02      -7.181291e-02 
       3.000000e+00       7.180984e-02      -7.181292e-02 
       3.000000e+00       7.180984e-02       7.180115e-02 
       3.000000e+00      -7.180423e-02       7.180115e-02 
       3.000000e+00      -7.180423e-02      -7.181291e-02 
       3.000000e+00       7.180984e-02      -7.181292e-02 
       3.000000e+00       7.180984e-02       7.180115e-02 
       3.000000e+00      -7.180423e-02       7.180115e-02 
       3.200000e+00      -7.180386e-02      -7.181368e-02 
       3.200000e+00       7.181020e-02      -7.181368e-02 
       3.200000e+00       7.181021e-02       7.180038e-02 
       3.200000e+00      -7.180386e-02       7.180039e-02 
       3.200000e+00      -7.180386e-02      -7.181368e-02 
       3.200000e+00       7.181020e-02      -7.181368e-02 
       3.200000e+00       7.181021e-02       7.180038e-02 
       3.200000e+00      -7.180386e-02       7.180039e-02 
       3.400000e+00      -7.180348e-02      -7.181449e-02 
       3.400000e+00       7.181059e-02      -7.181449e-02 
       3.400000e+00       7.181059e-02       7.179957e-02 
       3.400000e+00      -7.180348e-02       7.179958e-02 
       3.400000e+00      -7.180348e-02      -7.181449e-02 
       3.400000e+00       7.181059e-02      -7.181449e-02 
       3.400000e+00       7.181059e-02       7.179957e-02 
       3.400000e+00      -7.180348e-02       7.179958e-02 
       3.600000e+00      -7.180308e-02      -7.181534e-02 
       3.600000e+00       7.181099e-02      -7.181534e-02 
       3.600000e+00       7.181099e-02       7.179873e-02 
       3.600000e+00      -7.180307e-02       7.179873e-02 
       3.600000e+00      -7.180308e-02      -7.181534e-02 
       3.600000e+00       7.181099e-02      -7.181534e-02 
       3.600000e+00       7.181099e-02       7.179873e-02 
       3.600000e+00      -7.180307e-02       7.179873e-02 
       3.800000e+00      -7.180265e-02      -7.181623e-02 
       3.800000e+00       7.181141e-02      -7.181623e-02 
       3.800000e+00       7.181142e-02       7.179784e-02 
       3.800000e+00      -7.180265e-02       7.179784e-02 
       3.800000e+00      -7.180265e-02      -7.181623e-02 
       3.800000e+00       7.181141e-02      -7.181623e-02 
       3.800000e+00       7.181142e-02       7.179784e-02 
       3.800000e+00      -7.180265e-02       7.179784e-02 
       4.000000e+00      -7.180221e-02      -7.181715e-02 
       3.999999e+00       7.181185e-02      -7.181715e-02 
       4.000000e+00       7.181186e-02       7.179691e-02 
       4.000000e+00      -7.180221e-02       7.179691e-02 
       4.000000e+00      -7.180221e-02      -7.181715e-02 
       3.999999e+00       7.181185e-02      -7.181715e-02 
       4.000000e+00       7.181186e-02       7.179691e-02 
       4.000000e+00      -7.180221e-02       7.179691e-02 
       4.200000e+00      -7.180176e-02      -7.181812e-02 
[...]
POINT_DATA       800 
VECTORS Displacements float
       7.93998486e-24       0.00000000e+00       0.00000000e+00 
       4.24095954e-23       0.00000000e+00       1.38777878e-17 
      -7.93998486e-24       0.00000000e+00       0.00000000e+00 
      -4.24095954e-23       0.00000000e+00      -1.38777878e-17 
      -1.07031183e-08       1.36184687e-08      -2.85107025e-08 
      -3.03081281e-08       1.36184673e-08      -2.86638501e-08 
       1.06213218e-08       1.37716205e-08      -2.86638559e-08 
       3.02263317e-08       1.37716219e-08      -2.85107083e-08 
      -1.07031183e-08       1.36184687e-08      -2.85107025e-08 
      -3.03081281e-08       1.36184673e-08      -2.86638501e-08 
       1.06213218e-08       1.37716205e-08      -2.86638559e-08 
       3.02263317e-08       1.37716219e-08      -2.85107083e-08 
      -2.12176159e-08       5.42760842e-08      -1.13494612e-07 
      -6.00496367e-08       5.42760789e-08      -1.13800901e-07 
       2.10538355e-08       5.45823907e-08      -1.13800924e-07 
       5.98858563e-08       5.45823960e-08      -1.13494634e-07 
      -2.12176159e-08       5.42760842e-08      -1.13494612e-07 
      -6.00496367e-08       5.42760789e-08      -1.13800901e-07 
       2.10538355e-08       5.45823907e-08      -1.13800924e-07 
       5.98858563e-08       5.45823960e-08      -1.13494634e-07 
      -3.15434912e-08       1.21446437e-07      -2.53899703e-07 
      -8.92245240e-08       1.21446426e-07      -2.54359130e-07 
       3.12975428e-08       1.21905901e-07      -2.54359180e-07 
       8.89785756e-08       1.21905913e-07      -2.53899753e-07 
      -3.15434912e-08       1.21446437e-07      -2.53899703e-07 
      -8.92245240e-08       1.21446426e-07      -2.54359130e-07 
       3.12975428e-08       1.21905901e-07      -2.54359180e-07 
       8.89785756e-08       1.21905913e-07      -2.53899753e-07 
      -4.16807421e-08       2.14603119e-07      -4.48673952e-07 
      -1.17832788e-07       2.14603099e-07      -4.49286511e-07 
       4.13524457e-08       2.15215743e-07      -4.49286599e-07 
       1.17504492e-07       2.15215763e-07      -4.48674040e-07 
      -4.16807421e-08       2.14603119e-07      -4.48673952e-07 
      -1.17832788e-07       2.14603099e-07      -4.49286511e-07 
       4.13524457e-08       2.15215743e-07      -4.49286599e-07 
       1.17504492e-07       2.15215763e-07      -4.48674040e-07 
      -5.16293671e-08       3.33219719e-07      -6.96765334e-07 
      -1.45874427e-07       3.33219688e-07      -6.97531021e-07 
       5.12185458e-08       3.33985505e-07      -6.97531157e-07 
       1.45463606e-07       3.33985536e-07      -6.96765469e-07 
      -5.16293671e-08       3.33219719e-07      -6.96765334e-07 
      -1.45874427e-07       3.33219688e-07      -6.97531021e-07 
       5.12185458e-08       3.33985505e-07      -6.97531157e-07 
       1.45463606e-07       3.33985536e-07      -6.96765469e-07 
      -6.13893647e-08       4.76769830e-07      -9.97121825e-07 
      -1.73349440e-07       4.76769786e-07      -9.98040636e-07 
       6.08958444e-08       4.77688780e-07      -9.98040828e-07 
       1.72855920e-07       4.77688824e-07      -9.97122016e-07 
      -6.13893647e-08       4.76769830e-07      -9.97121825e-07 
      -1.73349440e-07       4.76769786e-07      -9.98040636e-07 
       6.08958444e-08       4.77688780e-07      -9.98040828e-07 
       1.72855920e-07       4.77688824e-07      -9.97122016e-07 
      -7.09607324e-08       6.44727041e-07      -1.34869140e-06 
      -2.00257825e-07       6.44726983e-07      -1.34976333e-06 
       7.03843441e-08       6.45799158e-07      -1.34976359e-06 
       1.99681437e-07       6.45799216e-07      -1.34869166e-06 
      -7.09607324e-08       6.44727041e-07      -1.34869140e-06 
      -2.00257825e-07       6.44726983e-07      -1.34976333e-06 
       7.03843441e-08       6.45799158e-07      -1.34976359e-06 
       1.99681437e-07       6.45799216e-07      -1.34869166e-06 
      -8.03434690e-08       8.36564944e-07      -1.75042204e-06 
      -2.26599579e-07       8.36564869e-07      -1.75164708e-06 
       7.96840465e-08       8.37790229e-07      -1.75164741e-06 
       2.25940156e-07       8.37790303e-07      -1.75042236e-06 
      -8.03434690e-08       8.36564944e-07      -1.75042204e-06 
      -2.26599579e-07       8.36564869e-07      -1.75164708e-06 
       7.96840465e-08       8.37790229e-07      -1.75164741e-06 
       2.25940156e-07       8.37790303e-07      -1.75042236e-06 
      -8.95375722e-08       1.05175713e-06      -2.20126171e-06 
      -2.52374701e-07       1.05175704e-06      -2.20263987e-06 
       8.87949525e-08       1.05313558e-06      -2.20264027e-06 
       2.51632082e-07       1.05313568e-06      -2.20126211e-06 
      -8.95375722e-08       1.05175713e-06      -2.20126171e-06 
      -2.52374701e-07       1.05175704e-06      -2.20263987e-06 
       8.87949525e-08       1.05313558e-06      -2.20264027e-06 
       2.51632082e-07       1.05313568e-06      -2.20126211e-06 
      -9.85430415e-08       1.28977719e-06      -2.70015839e-06 
      -2.77583190e-07       1.28977707e-06      -2.70168966e-06 
       9.77170647e-08       1.29130881e-06      -2.70169015e-06 
       2.76757214e-07       1.29130892e-06      -2.70015888e-06 
      -9.85430415e-08       1.28977719e-06      -2.70015839e-06 
      -2.77583190e-07       1.28977707e-06      -2.70168966e-06 
       9.77170647e-08       1.29130881e-06      -2.70169015e-06 
       2.76757214e-07       1.29130892e-06      -2.70015888e-06 
      -1.07354098e-07       1.55011636e-06      -3.24608625e-06 
      -3.02239864e-07       1.55011623e-06      -3.24775461e-06 
       1.06474103e-07       1.55178515e-06      -3.24775519e-06 
       3.01359870e-07       1.55178528e-06      -3.24608683e-06 
      -1.07354098e-07       1.55011636e-06      -3.24608625e-06 
      -3.02239864e-07       1.55011623e-06      -3.24775461e-06 
       1.06474103e-07       1.55178515e-06      -3.24775519e-06 
       3.01359870e-07       1.55178528e-06      -3.24608683e-06 
      -1.15993699e-07       1.83228745e-06      -3.83807266e-06 
      -3.26387550e-07       1.83228729e-06      -3.83987812e-06 
       1.15059268e-07       1.83409339e-06      -3.83987879e-06 
       3.25453120e-07       1.83409355e-06      -3.83807334e-06 
      -1.15993699e-07       1.83228745e-06      -3.83807266e-06 
      -3.26387550e-07       1.83228729e-06      -3.83987812e-06 
       1.15059268e-07       1.83409339e-06      -3.83987879e-06 
       3.25453120e-07       1.83409355e-06      -3.83807334e-06 
      -1.24461841e-07       2.13582039e-06      -4.47516944e-06 
      -3.50026245e-07       2.13582021e-06      -4.47711199e-06 
       1.23472563e-07       2.13776350e-06      -4.47711277e-06 
       3.49036967e-07       2.13776368e-06      -4.47517022e-06 
      -1.24461841e-07       2.13582039e-06      -4.47516944e-06 
      -3.50026245e-07       2.13582021e-06      -4.47711199e-06 
       1.23472563e-07       2.13776350e-06      -4.47711277e-06 
       3.49036967e-07       2.13776368e-06      -4.47517022e-06 
      -1.32758520e-07       2.46024514e-06      -5.15642842e-06 
      -3.73155943e-07       2.46024494e-06      -5.15850805e-06 
       1.31713995e-07       2.46232542e-06      -5.15850894e-06 
       3.72111418e-07       2.46232562e-06      -5.15642931e-06 
      -1.32758520e-07       2.46024514e-06      -5.15642842e-06 
      -3.73155943e-07       2.46024494e-06      -5.15850805e-06 
       1.31713995e-07       2.46232542e-06      -5.15850894e-06 
       3.72111418e-07       2.46232562e-06      -5.15642931e-06 
      -1.40883732e-07       2.80509164e-06      -5.88090140e-06 
      -3.95776641e-07       2.80509141e-06      -5.88311812e-06 
       1.39783565e-07       2.80730908e-06      -5.88311912e-06 
       3.94676475e-07       2.80730931e-06      -5.88090240e-06 
      -1.40883732e-07       2.80509164e-06      -5.88090140e-06 
      -3.95776641e-07       2.80509141e-06      -5.88311812e-06 
       1.39783565e-07       2.80730908e-06      -5.88311912e-06 
       3.94676475e-07       2.80730931e-06      -5.88090240e-06 
      -1.48837471e-07       3.16988983e-06      -6.64764022e-06 
      -4.17888334e-07       3.16988958e-06      -6.64999402e-06 
       1.47681280e-07       3.17224444e-06      -6.64999513e-06 
       4.16732142e-07       3.17224469e-06      -6.64764133e-06 
      -1.48837471e-07       3.16988983e-06      -6.64764022e-06 
      -4.17888334e-07       3.16988958e-06      -6.64999402e-06 
       1.47681280e-07       3.17224444e-06      -6.64999513e-06 
       4.16732142e-07       3.17224469e-06      -6.64764133e-06 
      -1.56619735e-07       3.55416966e-06      -7.45569668e-06 
      -4.39491018e-07       3.55416938e-06      -7.45818756e-06 
       1.55407143e-07       3.55666143e-06      -7.45818879e-06 
       4.38278426e-07       3.55666171e-06      -7.45569791e-06 
      -1.56619735e-07       3.55416966e-06      -7.45569668e-06 
      -4.39491018e-07       3.55416938e-06      -7.45818756e-06 
       1.55407143e-07       3.55666143e-06      -7.45818879e-06 
       4.38278426e-07       3.55666171e-06      -7.45569791e-06 
      -1.64230516e-07       3.95746107e-06      -8.30412261e-06 
      -4.60584688e-07       3.95746076e-06      -8.30675057e-06 
       1.62961159e-07       3.96009001e-06      -8.30675192e-06 
       4.59315330e-07       3.96009032e-06      -8.30412396e-06 
      -1.64230516e-07       3.95746107e-06      -8.30412261e-06 
      -4.60584688e-07       3.95746076e-06      -8.30675057e-06 
       1.62961159e-07       3.96009001e-06      -8.30675192e-06 
       4.59315330e-07       3.96009032e-06      -8.30412396e-06 
      -1.71669813e-07       4.37929400e-06      -9.19196982e-06 
      -4.81169340e-07       4.37929367e-06      -9.19473486e-06 
       1.70343331e-07       4.38206011e-06      -9.19473634e-06 
       4.79842858e-07       4.38206045e-06      -9.19197130e-06 
      -1.71669813e-07       4.37929400e-06      -9.19196982e-06 
      -4.81169340e-07       4.37929367e-06      -9.19473486e-06 
       1.70343331e-07       4.38206011e-06      -9.19473634e-06 
       4.79842858e-07       4.38206045e-06      -9.19197130e-06 
      -1.78937621e-07       4.81919841e-06      -1.01182901e-05 
      -5.01244970e-07       4.81919805e-06      -1.01211923e-05 
       1.77553666e-07       4.82210169e-06      -1.01211939e-05 
       4.99861014e-07       4.82210205e-06      -1.01182917e-05 
      -1.78937622e-07       4.81919841e-06      -1.01182901e-05 
      -5.01244970e-07       4.81919805e-06      -1.01211923e-05 
       1.77553665e-07       4.82210169e-06      -1.01211939e-05 
       4.99861014e-07       4.82210205e-06      -1.01182917e-05 
      -1.86031914e-07       5.27672169e-06      -1.10821606e-05 
      -5.20829779e-07       5.27672130e-06      -1.10851837e-05 
       1.84610879e-07       5.27974610e-06      -1.10851855e-05 
       5.19408743e-07       5.27974649e-06      -1.10821623e-05 
      -1.86031914e-07       5.27672169e-06      -1.10821606e-05 
      -5.20829779e-07       5.27672130e-06      -1.10851837e-05 
       1.84610879e-07       5.27974610e-06      -1.10851855e-05 
       5.19408743e-07       5.27974649e-06      -1.10821623e-05 
      -1.92971566e-07       5.75143238e-06      -1.20827104e-05 
      -5.39962463e-07       5.75143196e-06      -1.20858546e-05 
       1.91512948e-07       5.75457793e-06      -1.20858564e-05 
       5.38503845e-07       5.75457835e-06      -1.20827122e-05 
      -1.92971566e-07       5.75143238e-06      -1.20827104e-05 
      -5.39962463e-07       5.75143196e-06      -1.20858546e-05 
       1.91512948e-07       5.75457793e-06      -1.20858564e-05 
       5.38503845e-07       5.75457835e-06      -1.20827122e-05 
      -1.99756567e-07       6.24291621e-06      -1.31190939e-05 
      -5.58643015e-07       6.24291576e-06      -1.31223591e-05 
       1.98259880e-07       6.24618289e-06      -1.31223611e-05 
       5.57146327e-07       6.24618334e-06      -1.31190959e-05 
      -1.99756567e-07       6.24291621e-06      -1.31190939e-05 
      -5.58643015e-07       6.24291576e-06      -1.31223591e-05 
       1.98259880e-07       6.24618289e-06      -1.31223611e-05 
       5.57146327e-07       6.24618334e-06      -1.31190959e-05 
      -2.06386916e-07       6.75075889e-06      -1.41904654e-05 
      -5.76871431e-07       6.75075841e-06      -1.41938517e-05 
       2.04851679e-07       6.75414671e-06      -1.41938538e-05 
       5.75336194e-07       6.75414719e-06      -1.41904676e-05 
      -2.06386916e-07       6.75075889e-06      -1.41904654e-05 
      -5.76871431e-07       6.75075841e-06      -1.41938517e-05 
       2.04851679e-07       6.75414671e-06      -1.41938538e-05 
       5.75336194e-07       6.75414719e-06      -1.41904676e-05 
      -2.12862604e-07       7.27454615e-06      -1.52959793e-05 
      -5.94647704e-07       7.27454564e-06      -1.52994866e-05 
       2.11288351e-07       7.27805510e-06      -1.52994889e-05 
       5.93073451e-07       7.27805560e-06      -1.52959815e-05 
      -2.12862604e-07       7.27454615e-06      -1.52959793e-05 
      -5.94647704e-07       7.27454564e-06      -1.52994866e-05 
       2.11288351e-07       7.27805510e-06      -1.52994889e-05 
       5.93073451e-07       7.27805560e-06      -1.52959815e-05 
      -2.19183627e-07       7.81386369e-06      -1.64347897e-05 
      -6.11971827e-07       7.81386315e-06      -1.64384181e-05 
       2.17569903e-07       7.81749378e-06      -1.64384205e-05 
       6.10358105e-07       7.81749431e-06      -1.64347921e-05 
      -2.19183627e-07       7.81386369e-06      -1.64347897e-05 
      -6.11971827e-07       7.81386315e-06      -1.64384181e-05 
       2.17569903e-07       7.81749378e-06      -1.64384205e-05 
       6.10358105e-07       7.81749431e-06      -1.64347921e-05 
      -2.25349978e-07       8.36829725e-06      -1.76060511e-05 
      -6.28843797e-07       8.36829668e-06      -1.76098005e-05 
       2.23696341e-07       8.37204847e-06      -1.76098030e-05 
       6.27190159e-07       8.37204903e-06      -1.76060537e-05 
      -2.25349978e-07       8.36829725e-06      -1.76060511e-05 
      -6.28843797e-07       8.36829668e-06      -1.76098005e-05 
       2.23696341e-07       8.37204847e-06      -1.76098030e-05 
       6.27190159e-07       8.37204903e-06      -1.76060537e-05 
      -2.31361651e-07       8.93743253e-06      -1.88089177e-05 
      -6.45263606e-07       8.93743194e-06      -1.88127882e-05 
       2.29667670e-07       8.94130489e-06      -1.88127908e-05 
       6.43569625e-07       8.94130548e-06      -1.88089204e-05 
      -2.31361651e-07       8.93743253e-06      -1.88089177e-05 
      -6.45263606e-07       8.93743194e-06      -1.88127882e-05 
       2.29667670e-07       8.94130489e-06      -1.88127908e-05 
       6.43569625e-07       8.94130548e-06      -1.88089204e-05 
      -2.37218642e-07       9.52085527e-06      -2.00425439e-05 
      -6.61231249e-07       9.52085464e-06      -2.00465353e-05 
       2.35483895e-07       9.52484876e-06      -2.00465381e-05 
       6.59496503e-07       9.52484938e-06      -2.00425467e-05 
      -2.37218642e-07       9.52085527e-06      -2.00425439e-05 
      -6.61231249e-07       9.52085464e-06      -2.00465353e-05 
       2.35483895e-07       9.52484876e-06      -2.00465381e-05 
       6.59496503e-07       9.52484938e-06      -2.00425467e-05 
      -2.42920943e-07       1.01181512e-05      -2.13060838e-05 
      -6.76746721e-07       1.01181505e-05      -2.13101963e-05 
       2.41145024e-07       1.01222658e-05      -2.13101993e-05 
       6.74970800e-07       1.01222664e-05      -2.13060867e-05 
      -2.42920943e-07       1.01181512e-05      -2.13060838e-05 
      -6.76746720e-07       1.01181505e-05      -2.13101963e-05 
       2.41145023e-07       1.01222658e-05      -2.13101993e-05 
       6.74970800e-07       1.01222664e-05      -2.13060867e-05 
      -2.48469815e-07       1.07289233e-05      -2.25987167e-05 
      -6.91831294e-07       1.07289226e-05      -2.26029342e-05 
       2.46666173e-07       1.07331430e-05      -2.26029372e-05 
       6.90027651e-07       1.07331437e-05      -2.25987198e-05 
      -2.48469815e-07       1.07289233e-05      -2.25987167e-05 
      -6.91831294e-07       1.07289226e-05      -2.26029342e-05 
       2.46666173e-07       1.07331430e-05      -2.26029372e-05 
       6.90027651e-07       1.07331437e-05      -2.25987198e-05 
      -2.53881126e-07       1.13527956e-05      -2.39196742e-05 
      -7.06520653e-07       1.13527949e-05      -2.39239967e-05 
       2.52049274e-07       1.13571204e-05      -2.39239999e-05 
       7.04688801e-07       1.13571211e-05      -2.39196774e-05 
      -2.53881126e-07       1.13527956e-05      -2.39196742e-05 
      -7.06520653e-07       1.13527949e-05      -2.39239967e-05 
       2.52049274e-07       1.13571204e-05      -2.39239999e-05 
       7.04688801e-07       1.13571211e-05      -2.39196774e-05 
      -2.59154869e-07       1.19894094e-05      -2.52682138e-05 
      -7.20814790e-07       1.19894086e-05      -2.52726412e-05 
       2.57294335e-07       1.19938392e-05      -2.52726445e-05 
       7.18954257e-07       1.19938400e-05      -2.52682171e-05 
      -2.59154869e-07       1.19894094e-05      -2.52682138e-05 
      -7.20814790e-07       1.19894086e-05      -2.52726412e-05 
       2.57294335e-07       1.19938392e-05      -2.52726445e-05 
       7.18954257e-07       1.19938400e-05      -2.52682171e-05 
      -2.64291040e-07       1.26384057e-05      -2.66435927e-05 
      -7.34713702e-07       1.26384049e-05      -2.66481251e-05 
       2.62401361e-07       1.26429406e-05      -2.66481286e-05 
       7.32824024e-07       1.26429414e-05      -2.66435962e-05 
      -2.64291040e-07       1.26384057e-05      -2.66435927e-05 
      -7.34713702e-07       1.26384049e-05      -2.66481251e-05 
       2.62401361e-07       1.26429406e-05      -2.66481286e-05 
       7.32824024e-07       1.26429414e-05      -2.66435962e-05 
      -2.69289630e-07       1.32994258e-05      -2.80450684e-05 
      -7.48217381e-07       1.32994250e-05      -2.80497058e-05 
       2.67370359e-07       1.33040658e-05      -2.80497094e-05 
       7.46298110e-07       1.33040666e-05      -2.80450720e-05 
      -2.69289630e-07       1.32994258e-05      -2.80450684e-05 
      -7.48217381e-07       1.32994250e-05      -2.80497058e-05 
       2.67370359e-07       1.33040658e-05      -2.80497094e-05 
       7.46298110e-07       1.33040666e-05      -2.80450720e-05 
      -2.74150634e-07       1.39721109e-05      -2.94718982e-05 
      -7.61325819e-07       1.39721101e-05      -2.94766406e-05 
       2.72201334e-07       1.39768559e-05      -2.94766443e-05 
       7.59376520e-07       1.39768567e-05      -2.94719020e-05 
      -2.74150634e-07       1.39721109e-05      -2.94718982e-05 
      -7.61325819e-07       1.39721101e-05      -2.94766406e-05 
       2.72201334e-07       1.39768559e-05      -2.94766443e-05 
       7.59376520e-07       1.39768567e-05      -2.94719020e-05 
      -2.78874046e-07       1.46561021e-05      -3.09233396e-05 
      -7.74039012e-07       1.46561012e-05      -3.09281869e-05 
       2.76894294e-07       1.46609522e-05      -3.09281907e-05 
       7.72059262e-07       1.46609530e-05      -3.09233434e-05 
      -2.78874046e-07       1.46561021e-05      -3.09233396e-05 
      -7.74039012e-07       1.46561012e-05      -3.09281869e-05 
       2.76894294e-07       1.46609522e-05      -3.09281907e-05 
       7.72059262e-07       1.46609530e-05      -3.09233434e-05 
      -2.83459856e-07       1.53510406e-05      -3.23986497e-05 
      -7.86356953e-07       1.53510397e-05      -3.24036021e-05 
       2.81449246e-07       1.53559958e-05      -3.24036060e-05 
       7.84346343e-07       1.53559967e-05      -3.23986537e-05 
      -2.83459856e-07       1.53510406e-05      -3.23986497e-05 
      -7.86356953e-07       1.53510397e-05      -3.24036021e-05 