# vtk DataFile Version 2.0
./output/onsasExample_BladeCantileverBeamPitch_windVel3DDynamic 3D/onsasExample_BladeCantileverBeamPitch_windVel3DDynamic 3D_0178.vtk
ASCII
DATASET UNSTRUCTURED_GRID

POINTS 800 float
       1.160603e-23      -7.180703e-02      -7.180703e-02 
       2.347282e-23       7.180703e-02      -7.180703e-02 
      -1.160603e-23       7.180703e-02       7.180703e-02 
      -2.347282e-23      -7.180703e-02       7.180703e-02 
       2.000000e-01      -7.180702e-02      -7.180706e-02 
       2.000000e-01       7.180705e-02      -7.180706e-02 
       2.000000e-01       7.180705e-02       7.180700e-02 
       2.000000e-01      -7.180702e-02       7.180700e-02 
       2.000000e-01      -7.180702e-02      -7.180706e-02 
       2.000000e-01       7.180705e-02      -7.180706e-02 
       2.000000e-01       7.180705e-02       7.180700e-02 
       2.000000e-01      -7.180702e-02       7.180700e-02 
       4.000000e-01      -7.180698e-02      -7.180715e-02 
       3.999999e-01       7.180709e-02      -7.180715e-02 
       4.000000e-01       7.180709e-02       7.180692e-02 
       4.000001e-01      -7.180698e-02       7.180692e-02 
       4.000000e-01      -7.180698e-02      -7.180715e-02 
       3.999999e-01       7.180709e-02      -7.180715e-02 
       4.000000e-01       7.180709e-02       7.180692e-02 
       4.000001e-01      -7.180698e-02       7.180692e-02 
       6.000000e-01      -7.180691e-02      -7.180729e-02 
       5.999999e-01       7.180715e-02      -7.180729e-02 
       6.000000e-01       7.180715e-02       7.180678e-02 
       6.000001e-01      -7.180691e-02       7.180678e-02 
       6.000000e-01      -7.180691e-02      -7.180729e-02 
       5.999999e-01       7.180715e-02      -7.180729e-02 
       6.000000e-01       7.180715e-02       7.180678e-02 
       6.000001e-01      -7.180691e-02       7.180678e-02 
       8.000000e-01      -7.180682e-02      -7.180748e-02 
       7.999999e-01       7.180725e-02      -7.180748e-02 
       8.000000e-01       7.180725e-02       7.180658e-02 
       8.000001e-01      -7.180682e-02       7.180658e-02 
       8.000000e-01      -7.180682e-02      -7.180748e-02 
       7.999999e-01       7.180725e-02      -7.180748e-02 
       8.000000e-01       7.180725e-02       7.180658e-02 
       8.000001e-01      -7.180682e-02       7.180658e-02 
       9.999999e-01      -7.180670e-02      -7.180773e-02 
       9.999999e-01       7.180737e-02      -7.180773e-02 
       1.000000e+00       7.180737e-02       7.180633e-02 
       1.000000e+00      -7.180670e-02       7.180633e-02 
       9.999999e-01      -7.180670e-02      -7.180773e-02 
       9.999999e-01       7.180737e-02      -7.180773e-02 
       1.000000e+00       7.180737e-02       7.180633e-02 
       1.000000e+00      -7.180670e-02       7.180633e-02 
       1.200000e+00      -7.180656e-02      -7.180804e-02 
       1.200000e+00       7.180751e-02      -7.180804e-02 
       1.200000e+00       7.180751e-02       7.180603e-02 
       1.200000e+00      -7.180656e-02       7.180603e-02 
       1.200000e+00      -7.180656e-02      -7.180804e-02 
       1.200000e+00       7.180751e-02      -7.180804e-02 
       1.200000e+00       7.180751e-02       7.180603e-02 
       1.200000e+00      -7.180656e-02       7.180603e-02 
       1.400000e+00      -7.180639e-02      -7.180839e-02 
       1.400000e+00       7.180768e-02      -7.180839e-02 
       1.400000e+00       7.180768e-02       7.180568e-02 
       1.400000e+00      -7.180639e-02       7.180568e-02 
       1.400000e+00      -7.180639e-02      -7.180839e-02 
       1.400000e+00       7.180768e-02      -7.180839e-02 
       1.400000e+00       7.180768e-02       7.180568e-02 
       1.400000e+00      -7.180639e-02       7.180568e-02 
       1.600000e+00      -7.180620e-02      -7.180879e-02 
       1.600000e+00       7.180787e-02      -7.180879e-02 
       1.600000e+00       7.180787e-02       7.180527e-02 
       1.600000e+00      -7.180620e-02       7.180527e-02 
       1.600000e+00      -7.180620e-02      -7.180879e-02 
       1.600000e+00       7.180787e-02      -7.180879e-02 
       1.600000e+00       7.180787e-02       7.180527e-02 
       1.600000e+00      -7.180620e-02       7.180527e-02 
       1.800000e+00      -7.180598e-02      -7.180925e-02 
       1.800000e+00       7.180808e-02      -7.180925e-02 
       1.800000e+00       7.180809e-02       7.180482e-02 
       1.800000e+00      -7.180598e-02       7.180482e-02 
       1.800000e+00      -7.180598e-02      -7.180925e-02 
       1.800000e+00       7.180808e-02      -7.180925e-02 
       1.800000e+00       7.180809e-02       7.180482e-02 
       1.800000e+00      -7.180598e-02       7.180482e-02 
       2.000000e+00      -7.180574e-02      -7.180975e-02 
       2.000000e+00       7.180832e-02      -7.180975e-02 
       2.000000e+00       7.180832e-02       7.180432e-02 
       2.000000e+00      -7.180574e-02       7.180432e-02 
       2.000000e+00      -7.180574e-02      -7.180975e-02 
       2.000000e+00       7.180832e-02      -7.180975e-02 
       2.000000e+00       7.180832e-02       7.180432e-02 
       2.000000e+00      -7.180574e-02       7.180432e-02 
       2.200000e+00      -7.180548e-02      -7.181030e-02 
       2.200000e+00       7.180858e-02      -7.181030e-02 
       2.200000e+00       7.180858e-02       7.180377e-02 
       2.200000e+00      -7.180548e-02       7.180377e-02 
       2.200000e+00      -7.180548e-02      -7.181030e-02 
       2.200000e+00       7.180858e-02      -7.181030e-02 
       2.200000e+00       7.180858e-02       7.180377e-02 
       2.200000e+00      -7.180548e-02       7.180377e-02 
       2.400000e+00      -7.180520e-02      -7.181089e-02 
       2.400000e+00       7.180886e-02      -7.181090e-02 
       2.400000e+00       7.180887e-02       7.180317e-02 
       2.400000e+00      -7.180520e-02       7.180317e-02 
       2.400000e+00      -7.180520e-02      -7.181089e-02 
       2.400000e+00       7.180886e-02      -7.181090e-02 
       2.400000e+00       7.180887e-02       7.180317e-02 
       2.400000e+00      -7.180520e-02       7.180317e-02 
       2.600000e+00      -7.180490e-02      -7.181153e-02 
       2.600000e+00       7.180917e-02      -7.181154e-02 
       2.600000e+00       7.180917e-02       7.180253e-02 
       2.600000e+00      -7.180490e-02       7.180253e-02 
       2.600000e+00      -7.180490e-02      -7.181153e-02 
       2.600000e+00       7.180917e-02      -7.181154e-02 
       2.600000e+00       7.180917e-02       7.180253e-02 
       2.600000e+00      -7.180490e-02       7.180253e-02 
       2.800000e+00      -7.180457e-02      -7.181222e-02 
       2.800000e+00       7.180949e-02      -7.181222e-02 
       2.800000e+00       7.180949e-02       7.180184e-02 
       2.800000e+00      -7.180457e-02       7.180185e-02 
       2.800000e+00      -7.180457e-02      -7.181222e-02 
       2.800000e+00       7.180949e-02      -7.181222e-02 
       2.800000e+00       7.180949e-02       7.180184e-02 
       2.800000e+00      -7.180457e-02       7.180185e-02 
       3.000000e+00      -7.180423e-02      -7.181295e-02 
       3.000000e+00       7.180984e-02      -7.181295e-02 
       3.000000e+00       7.180984e-02       7.180112e-02 
       3.000000e+00      -7.180423e-02       7.180112e-02 
       3.000000e+00      -7.180423e-02      -7.181295e-02 
       3.000000e+00       7.180984e-02      -7.181295e-02 
       3.000000e+00       7.180984e-02       7.180112e-02 
       3.000000e+00      -7.180423e-02       7.180112e-02 
       3.200000e+00      -7.180387e-02      -7.181372e-02 
       3.200000e+00       7.181020e-02      -7.181372e-02 
       3.200000e+00       7.181020e-02       7.180034e-02 
       3.200000e+00      -7.180386e-02       7.180035e-02 
       3.200000e+00      -7.180387e-02      -7.181372e-02 
       3.200000e+00       7.181020e-02      -7.181372e-02 
       3.200000e+00       7.181020e-02       7.180034e-02 
       3.200000e+00      -7.180386e-02       7.180035e-02 
       3.400000e+00      -7.180348e-02      -7.181453e-02 
       3.400000e+00       7.181058e-02      -7.181454e-02 
       3.400000e+00       7.181059e-02       7.179953e-02 
       3.400000e+00      -7.180348e-02       7.179953e-02 
       3.400000e+00      -7.180348e-02      -7.181453e-02 
       3.400000e+00       7.181058e-02      -7.181454e-02 
       3.400000e+00       7.181059e-02       7.179953e-02 
       3.400000e+00      -7.180348e-02       7.179953e-02 
       3.600000e+00      -7.180308e-02      -7.181539e-02 
       3.600000e+00       7.181099e-02      -7.181539e-02 
       3.600000e+00       7.181099e-02       7.179868e-02 
       3.600000e+00      -7.180308e-02       7.179868e-02 
       3.600000e+00      -7.180308e-02      -7.181539e-02 
       3.600000e+00       7.181099e-02      -7.181539e-02 
       3.600000e+00       7.181099e-02       7.179868e-02 
       3.600000e+00      -7.180308e-02       7.179868e-02 
       3.800000e+00      -7.180266e-02      -7.181628e-02 
       3.800000e+00       7.181141e-02      -7.181628e-02 
       3.800000e+00       7.181141e-02       7.179778e-02 
       3.800000e+00      -7.180265e-02       7.179779e-02 
       3.800000e+00      -7.180266e-02      -7.181628e-02 
       3.800000e+00       7.181141e-02      -7.181628e-02 
       3.800000e+00       7.181141e-02       7.179778e-02 
       3.800000e+00      -7.180265e-02       7.179779e-02 
       4.000000e+00      -7.180222e-02      -7.181721e-02 
       3.999999e+00       7.181185e-02      -7.181721e-02 
       4.000000e+00       7.181185e-02       7.179685e-02 
       4.000001e+00      -7.180221e-02       7.179685e-02 
       4.000000e+00      -7.180222e-02      -7.181721e-02 
       3.999999e+00       7.181185e-02      -7.181721e-02 
       4.000000e+00       7.181185e-02       7.179685e-02 
       4.000001e+00      -7.180221e-02       7.179685e-02 
       4.200000e+00      -7.180176e-02      -7.181818e-02 
[...]
POINT_DATA       800 
VECTORS Displacements float
       1.16060280e-23      -1.38777878e-17      -1.38777878e-17 
       2.34728233e-23       1.38777878e-17      -1.38777878e-17 
      -1.16060280e-23       1.38777878e-17       1.38777878e-17 
      -2.34728233e-23      -1.38777878e-17       1.38777878e-17 
      -1.08259673e-08       1.36089997e-08      -2.86722918e-08 
      -3.04174091e-08       1.36089984e-08      -2.88254736e-08 
       1.07437262e-08       1.37621858e-08      -2.88254795e-08 
       3.03351680e-08       1.37621872e-08      -2.86722977e-08 
      -1.08259673e-08       1.36089997e-08      -2.86722918e-08 
      -3.04174091e-08       1.36089984e-08      -2.88254736e-08 
       1.07437262e-08       1.37621858e-08      -2.88254795e-08 
       3.03351680e-08       1.37621872e-08      -2.86722977e-08 
      -2.14620843e-08       5.42382762e-08      -1.14138751e-07 
      -6.02670049e-08       5.42382710e-08      -1.14445110e-07 
       2.12974131e-08       5.45446512e-08      -1.14445133e-07 
       6.01023337e-08       5.45446564e-08      -1.14138775e-07 
      -2.14620843e-08       5.42382762e-08      -1.14138751e-07 
      -6.02670049e-08       5.42382710e-08      -1.14445110e-07 
       2.12974131e-08       5.45446512e-08      -1.14445133e-07 
       6.01023337e-08       5.45446564e-08      -1.14138775e-07 
      -3.19083493e-08       1.21361470e-07      -2.55343978e-07 
      -8.95487858e-08       1.21361459e-07      -2.55803507e-07 
       3.16610621e-08       1.21821037e-07      -2.55803558e-07 
       8.93014986e-08       1.21821048e-07      -2.55344029e-07 
      -3.19083493e-08       1.21361470e-07      -2.55343978e-07 
      -8.95487858e-08       1.21361459e-07      -2.55803507e-07 
       3.16610621e-08       1.21821037e-07      -2.55803558e-07 
       8.93014986e-08       1.21821048e-07      -2.55344029e-07 
      -4.21647601e-08       2.14452223e-07      -4.51232568e-07 
      -1.18262750e-07       2.14452203e-07      -4.51845265e-07 
       4.18346753e-08       2.15064984e-07      -4.51845354e-07 
       1.17932665e-07       2.15065004e-07      -4.51232658e-07 
      -4.21647601e-08       2.14452223e-07      -4.51232568e-07 
      -1.18262750e-07       2.14452203e-07      -4.51845265e-07 
       4.18346753e-08       2.15064984e-07      -4.51845354e-07 
       1.17932665e-07       2.15065004e-07      -4.51232658e-07 
      -5.22313155e-08       3.32984175e-07      -7.00749123e-07 
      -1.46408896e-07       3.32984144e-07      -7.01514981e-07 
       5.18182541e-08       3.33750132e-07      -7.01515117e-07 
       1.45995834e-07       3.33750163e-07      -7.00749259e-07 
      -5.22313155e-08       3.32984175e-07      -7.00749123e-07 
      -1.46408896e-07       3.32984144e-07      -7.01514981e-07 
       5.18182541e-08       3.33750132e-07      -7.01515117e-07 
       1.45995834e-07       3.33750163e-07      -7.00749259e-07 
      -6.21080134e-08       4.76430967e-07      -1.00283824e-06 
      -1.73987221e-07       4.76430924e-07      -1.00375725e-06 
       6.16118008e-08       4.77350123e-07      -1.00375745e-06 
       1.73491008e-07       4.77350167e-07      -1.00283843e-06 
      -6.21080134e-08       4.76430967e-07      -1.00283824e-06 
      -1.73987221e-07       4.76430924e-07      -1.00375725e-06 
       6.16118008e-08       4.77350123e-07      -1.00375745e-06 
       1.73491008e-07       4.77350167e-07      -1.00283843e-06 
      -7.17948521e-08       6.44266241e-07      -1.35644451e-06 
      -2.00997724e-07       6.44266183e-07      -1.35751668e-06 
       7.12153168e-08       6.45338598e-07      -1.35751694e-06 
       2.00418189e-07       6.45338656e-07      -1.35644477e-06 
      -7.17948521e-08       6.44266241e-07      -1.35644451e-06 
      -2.00997724e-07       6.44266183e-07      -1.35751668e-06 
       7.12153168e-08       6.45338598e-07      -1.35751694e-06 
       2.00418189e-07       6.45338656e-07      -1.35644477e-06 
      -8.12918295e-08       8.35963637e-07      -1.76051255e-06 
      -2.27440404e-07       8.35963563e-07      -1.76173787e-06 
       8.06288039e-08       8.37189197e-07      -1.76173820e-06 
       2.26777378e-07       8.37189271e-07      -1.76051288e-06 
      -8.12918295e-08       8.35963637e-07      -1.76051255e-06 
      -2.27440404e-07       8.35963563e-07      -1.76173787e-06 
       8.06288039e-08       8.37189197e-07      -1.76173820e-06 
       2.26777378e-07       8.37189271e-07      -1.76051288e-06 
      -9.05989446e-08       1.05099680e-06      -2.21398694e-06 
      -2.53315257e-07       1.05099670e-06      -2.21536541e-06 
       8.98522639e-08       1.05237556e-06      -2.21536582e-06 
       2.52568577e-07       1.05237565e-06      -2.21398735e-06 
      -9.05989446e-08       1.05099680e-06      -2.21398694e-06 
      -2.53315257e-07       1.05099670e-06      -2.21536541e-06 
       8.98522639e-08       1.05237556e-06      -2.21536582e-06 
       2.52568577e-07       1.05237565e-06      -2.21398735e-06 
      -9.97161949e-08       1.28883936e-06      -2.71581229e-06 
      -2.78622284e-07       1.28883925e-06      -2.71734390e-06 
       9.88856987e-08       1.29037133e-06      -2.71734439e-06 
       2.77791788e-07       1.29037144e-06      -2.71581278e-06 
      -9.97161949e-08       1.28883936e-06      -2.71581229e-06 
      -2.78622284e-07       1.28883925e-06      -2.71734390e-06 
       9.88856987e-08       1.29037133e-06      -2.71734439e-06 
       2.77791788e-07       1.29037144e-06      -2.71581278e-06 
      -1.08637698e-07       1.54898263e-06      -3.26495930e-06 
      -3.03376210e-07       1.54898250e-06      -3.26662803e-06 
       1.07752765e-07       1.55065179e-06      -3.26662862e-06 
       3.02491278e-07       1.55065192e-06      -3.26495988e-06 
      -1.08637698e-07       1.54898263e-06      -3.26495930e-06 
      -3.03376210e-07       1.54898250e-06      -3.26662803e-06 
       1.07752765e-07       1.55065179e-06      -3.26662862e-06 
       3.02491278e-07       1.55065192e-06      -3.26495988e-06 
      -1.17386388e-07       1.83093948e-06      -3.86045167e-06 
      -3.27619852e-07       1.83093932e-06      -3.86225754e-06 
       1.16446598e-07       1.83274584e-06      -3.86225822e-06 
       3.26680062e-07       1.83274599e-06      -3.86045236e-06 
      -1.17386388e-07       1.83093948e-06      -3.86045167e-06 
      -3.27619852e-07       1.83093932e-06      -3.86225754e-06 
       1.16446598e-07       1.83274584e-06      -3.86225822e-06 
       3.26680062e-07       1.83274599e-06      -3.86045236e-06 
      -1.25962262e-07       2.13423994e-06      -4.50133753e-06 
      -3.51353205e-07       2.13423976e-06      -4.50328052e-06 
       1.24967199e-07       2.13618349e-06      -4.50328131e-06 
       3.50358142e-07       2.13618367e-06      -4.50133832e-06 
      -1.25962262e-07       2.13423994e-06      -4.50133753e-06 
      -3.51353205e-07       2.13423976e-06      -4.50328052e-06 
       1.24967199e-07       2.13618349e-06      -4.50328131e-06 
       3.50358142e-07       2.13618367e-06      -4.50133832e-06 
      -1.34365316e-07       2.45841404e-06      -5.18666499e-06 
      -3.74576264e-07       2.45841384e-06      -5.18874510e-06 
       1.33314575e-07       2.46049479e-06      -5.18874599e-06 
       3.73525524e-07       2.46049499e-06      -5.18666589e-06 
      -1.34365316e-07       2.45841404e-06      -5.18666499e-06 
      -3.74576264e-07       2.45841384e-06      -5.18874510e-06 
       1.33314575e-07       2.46049479e-06      -5.18874599e-06 
       3.73525524e-07       2.46049499e-06      -5.18666589e-06 
      -1.42595544e-07       2.80299180e-06      -5.91548217e-06 
      -3.97289026e-07       2.80299158e-06      -5.91769939e-06 
       1.41488729e-07       2.80520976e-06      -5.91770040e-06 
       3.96182211e-07       2.80520998e-06      -5.91548318e-06 
      -1.42595544e-07       2.80299180e-06      -5.91548217e-06 
      -3.97289026e-07       2.80299158e-06      -5.91769939e-06 
       1.41488729e-07       2.80520976e-06      -5.91770040e-06 
       3.96182211e-07       2.80520998e-06      -5.91548318e-06 
      -1.50652943e-07       3.16750326e-06      -6.68683717e-06 
      -4.19491485e-07       3.16750301e-06      -6.68919151e-06 
       1.49489665e-07       3.16985842e-06      -6.68919264e-06 
       4.18328207e-07       3.16985867e-06      -6.68683830e-06 
      -1.50652943e-07       3.16750326e-06      -6.68683717e-06 
      -4.19491485e-07       3.16750301e-06      -6.68919151e-06 
       1.49489665e-07       3.16985842e-06      -6.68919264e-06 
       4.18328207e-07       3.16985867e-06      -6.68683830e-06 
      -1.58537508e-07       3.55147845e-06      -7.49977813e-06 
      -4.41183638e-07       3.55147817e-06      -7.50226958e-06 
       1.57317389e-07       3.55397080e-06      -7.50227083e-06 
       4.39963519e-07       3.55397108e-06      -7.49977938e-06 
      -1.58537508e-07       3.55147845e-06      -7.49977813e-06 
      -4.41183638e-07       3.55147817e-06      -7.50226958e-06 
       1.57317389e-07       3.55397080e-06      -7.50227083e-06 
       4.39963519e-07       3.55397108e-06      -7.49977938e-06 
      -1.66249235e-07       3.95444739e-06      -8.35335315e-06 
      -4.62365480e-07       3.95444708e-06      -8.35598172e-06 
       1.64971904e-07       3.95707694e-06      -8.35598309e-06 
       4.61088149e-07       3.95707725e-06      -8.35335452e-06 
      -1.66249235e-07       3.95444739e-06      -8.35335315e-06 
      -4.62365480e-07       3.95444708e-06      -8.35598172e-06 
       1.64971904e-07       3.95707694e-06      -8.35598309e-06 
       4.61088149e-07       3.95707725e-06      -8.35335452e-06 
      -1.73788119e-07       4.37594011e-06      -9.24661035e-06 
      -4.83037006e-07       4.37593977e-06      -9.24937603e-06 
       1.72453216e-07       4.37870686e-06      -9.24937753e-06 
       4.81702102e-07       4.37870720e-06      -9.24661185e-06 
      -1.73788119e-07       4.37594011e-06      -9.24661035e-06 
      -4.83037006e-07       4.37593977e-06      -9.24937603e-06 
       1.72453216e-07       4.37870686e-06      -9.24937753e-06 
       4.81702102e-07       4.37870720e-06      -9.24661185e-06 
      -1.81154157e-07       4.81548663e-06      -1.01785979e-05 
      -5.03198212e-07       4.81548627e-06      -1.01815006e-05 
       1.79761327e-07       4.81839059e-06      -1.01815023e-05 
       5.01805382e-07       4.81839095e-06      -1.01785995e-05 
      -1.81154157e-07       4.81548663e-06      -1.01785979e-05 
      -5.03198212e-07       4.81548627e-06      -1.01815006e-05 
       1.79761327e-07       4.81839059e-06      -1.01815023e-05 
       5.01805382e-07       4.81839095e-06      -1.01785995e-05 
      -1.88345223e-07       5.27263446e-06      -1.11483889e-05 
      -5.22867213e-07       5.27263407e-06      -1.11514127e-05 
       1.86914902e-07       5.27565958e-06      -1.11514145e-05 
       5.21436892e-07       5.27565997e-06      -1.11483906e-05 
      -1.88345223e-07       5.27263446e-06      -1.11483889e-05 
      -5.22867213e-07       5.27263407e-06      -1.11514127e-05 
       1.86914902e-07       5.27565958e-06      -1.11514145e-05 
       5.21436892e-07       5.27565997e-06      -1.11483906e-05 
      -1.95380200e-07       5.74695223e-06      -1.21551088e-05 
      -5.42082724e-07       5.74695181e-06      -1.21582537e-05 
       1.93911882e-07       5.75009853e-06      -1.21582556e-05 
       5.40614407e-07       5.75009894e-06      -1.21551107e-05 
      -1.95380200e-07       5.74695223e-06      -1.21551088e-05 
      -5.42082724e-07       5.74695181e-06      -1.21582537e-05 
       1.93911882e-07       5.75009853e-06      -1.21582556e-05 
       5.40614407e-07       5.75009894e-06      -1.21551107e-05 
      -2.02259081e-07       6.23802580e-06      -1.31979079e-05 
      -5.60844740e-07       6.23802535e-06      -1.32011739e-05 
       2.00752272e-07       6.24129325e-06      -1.32011760e-05 
       5.59337932e-07       6.24129370e-06      -1.31979100e-05 
      -2.02259081e-07       6.23802580e-06      -1.31979079e-05 
      -5.60844740e-07       6.23802535e-06      -1.32011739e-05 
       2.00752272e-07       6.24129325e-06      -1.32011760e-05 
       5.59337932e-07       6.24129370e-06      -1.31979100e-05 
      -2.08981861e-07       6.74544098e-06      -1.42759367e-05 
      -5.79153255e-07       6.74544050e-06      -1.42793238e-05 
       2.07436076e-07       6.74882960e-06      -1.42793260e-05 
       5.77607470e-07       6.74883008e-06      -1.42759389e-05 
      -2.08981861e-07       6.74544098e-06      -1.42759367e-05 
      -5.79153255e-07       6.74544050e-06      -1.42793238e-05 
       2.07436076e-07       6.74882960e-06      -1.42793260e-05 
       5.77607470e-07       6.74883008e-06      -1.42759389e-05 
      -2.15548534e-07       7.26878362e-06      -1.53883456e-05 
      -5.97008263e-07       7.26878311e-06      -1.53918537e-05 
       2.13963303e-07       7.27229341e-06      -1.53918560e-05 
       5.95423032e-07       7.27229392e-06      -1.53883479e-05 
      -2.15548534e-07       7.26878362e-06      -1.53883456e-05 
      -5.97008263e-07       7.26878311e-06      -1.53918537e-05 
       2.13963303e-07       7.27229341e-06      -1.53918560e-05 
       5.95423032e-07       7.27229392e-06      -1.53883479e-05 
      -2.21959095e-07       7.80763955e-06      -1.65342848e-05 
      -6.14409758e-07       7.80763901e-06      -1.65379140e-05 
       2.20333957e-07       7.81127051e-06      -1.65379165e-05 
       6.12784620e-07       7.81127104e-06      -1.65342873e-05 
      -2.21959095e-07       7.80763955e-06      -1.65342848e-05 
      -6.14409758e-07       7.80763901e-06      -1.65379140e-05 
       2.20333957e-07       7.81127051e-06      -1.65379165e-05 
       6.12784620e-07       7.81127104e-06      -1.65342873e-05 
      -2.28213536e-07       8.36159460e-06      -1.77129049e-05 
      -6.31357735e-07       8.36159404e-06      -1.77166551e-05 
       2.26548044e-07       8.36534673e-06      -1.77166577e-05 
       6.29692242e-07       8.36534730e-06      -1.77129074e-05 
      -2.28213536e-07       8.36159460e-06      -1.77129049e-05 
      -6.31357735e-07       8.36159404e-06      -1.77166551e-05 
       2.26548044e-07       8.36534673e-06      -1.77166577e-05 
       6.29692242e-07       8.36534730e-06      -1.77129074e-05 
      -2.34311852e-07       8.93023462e-06      -1.89233561e-05 
      -6.47852185e-07       8.93023402e-06      -1.89272274e-05 
       2.32605571e-07       8.93410791e-06      -1.89272301e-05 
       6.46145905e-07       8.93410851e-06      -1.89233588e-05 
      -2.34311852e-07       8.93023462e-06      -1.89233561e-05 
      -6.47852185e-07       8.93023402e-06      -1.89272274e-05 
       2.32605571e-07       8.93410791e-06      -1.89272301e-05 
       6.46145905e-07       8.93410851e-06      -1.89233588e-05 
      -2.40254038e-07       9.51314543e-06      -2.01647888e-05 
      -6.63893107e-07       9.51314480e-06      -2.01687813e-05 
       2.38506542e-07       9.51713989e-06      -2.01687841e-05 
       6.62145611e-07       9.51714051e-06      -2.01647917e-05 
      -2.40254038e-07       9.51314543e-06      -2.01647888e-05 
      -6.63893107e-07       9.51314480e-06      -2.01687813e-05 
       2.38506542e-07       9.51713989e-06      -2.01687841e-05 
       6.62145611e-07       9.51714051e-06      -2.01647917e-05 
      -2.46040087e-07       1.01099129e-05      -2.14363535e-05 
      -6.79480491e-07       1.01099122e-05      -2.14404670e-05 
       2.44250964e-07       1.01140285e-05      -2.14404700e-05 
       6.77691369e-07       1.01140291e-05      -2.14363565e-05 
      -2.46040087e-07       1.01099129e-05      -2.14363535e-05 
      -6.79480492e-07       1.01099122e-05      -2.14404670e-05 
       2.44250963e-07       1.01140285e-05      -2.14404700e-05 
       6.77691369e-07       1.01140291e-05      -2.14363565e-05 
      -2.51671181e-07       1.07201401e-05      -2.27372253e-05 
      -6.94635546e-07       1.07201394e-05      -2.27414438e-05 
       2.49853922e-07       1.07243608e-05      -2.27414469e-05 
       6.92818288e-07       1.07243615e-05      -2.27372284e-05 
      -2.51671181e-07       1.07201401e-05      -2.27372253e-05 
      -6.94635546e-07       1.07201394e-05      -2.27414438e-05 
       2.49853922e-07       1.07243608e-05      -2.27414469e-05 
       6.92818288e-07       1.07243615e-05      -2.27372284e-05 
      -2.57163227e-07       1.13434513e-05      -2.40666318e-05 
      -7.09394008e-07       1.13434506e-05      -2.40709553e-05 
       2.55317341e-07       1.13477771e-05      -2.40709585e-05 
       7.07548122e-07       1.13477778e-05      -2.40666350e-05 
      -2.57163227e-07       1.13434513e-05      -2.40666318e-05 
      -7.09394008e-07       1.13434506e-05      -2.40709553e-05 
       2.55317341e-07       1.13477771e-05      -2.40709585e-05 
       7.07548122e-07       1.13477778e-05      -2.40666350e-05 
      -2.62516219e-07       1.19794878e-05      -2.54238264e-05 
      -7.23755868e-07       1.19794870e-05      -2.54282549e-05 
       2.60641229e-07       1.19839187e-05      -2.54282582e-05 
       7.21880879e-07       1.19839194e-05      -2.54238297e-05 
      -2.62516219e-07       1.19794878e-05      -2.54238264e-05 
      -7.23755868e-07       1.19794870e-05      -2.54282549e-05 
       2.60641229e-07       1.19839187e-05      -2.54282582e-05 
       7.21880879e-07       1.19839194e-05      -2.54238297e-05 
      -2.67730152e-07       1.26278908e-05      -2.68080624e-05 
      -7.37721123e-07       1.26278901e-05      -2.68125959e-05 
       2.65825590e-07       1.26324269e-05      -2.68125994e-05 
       7.35816561e-07       1.26324276e-05      -2.68080659e-05 
      -2.67730152e-07       1.26278908e-05      -2.68080624e-05 
      -7.37721123e-07       1.26278901e-05      -2.68125959e-05 
       2.65825590e-07       1.26324269e-05      -2.68125994e-05 
       7.35816561e-07       1.26324276e-05      -2.68080659e-05 
      -2.72805019e-07       1.32883019e-05      -2.82185933e-05 
      -7.51289766e-07       1.32883011e-05      -2.82232319e-05 
       2.70870431e-07       1.32929430e-05      -2.82232355e-05 
       7.49355178e-07       1.32929438e-05      -2.82185970e-05 
      -2.72805019e-07       1.32883019e-05      -2.82185933e-05 
      -7.51289766e-07       1.32883011e-05      -2.82232319e-05 
       2.70870431e-07       1.32929430e-05      -2.82232355e-05 
       7.49355178e-07       1.32929438e-05      -2.82185970e-05 
      -2.77740813e-07       1.39603621e-05      -2.96546725e-05 
      -7.64461790e-07       1.39603613e-05      -2.96594160e-05 
       2.75775760e-07       1.39651084e-05      -2.96594198e-05 
       7.62496735e-07       1.39651092e-05      -2.96546762e-05 
      -2.77740813e-07       1.39603621e-05      -2.96546725e-05 
      -7.64461790e-07       1.39603613e-05      -2.96594160e-05 
       2.75775760e-07       1.39651084e-05      -2.96594198e-05 
       7.62496735e-07       1.39651092e-05      -2.96546762e-05 
      -2.82537529e-07       1.46437130e-05      -3.11155532e-05 
      -7.77237188e-07       1.46437122e-05      -3.11204017e-05 
       2.80541581e-07       1.46485644e-05      -3.11204056e-05 
       7.75241240e-07       1.46485652e-05      -3.11155571e-05 
      -2.82537529e-07       1.46437130e-05      -3.11155532e-05 
      -7.77237188e-07       1.46437122e-05      -3.11204017e-05 
       2.80541581e-07       1.46485644e-05      -3.11204056e-05 
       7.75241240e-07       1.46485652e-05      -3.11155571e-05 
      -2.87195157e-07       1.53379959e-05      -3.26004889e-05 
      -7.89615953e-07       1.53379950e-05      -3.26054424e-05 
       2.85167904e-07       1.53429523e-05      -3.26054464e-05 
       7.87588698e-07       1.53429532e-05      -3.26004929e-05 
      -2.87195157e-07       1.53379959e-05      -3.26004889e-05 
      -7.89615953e-07       1.53379950e-05      -3.26054424e-05 