# vtk DataFile Version 2.0
./output/onsasExample_BladeCantileverBeamPitch_windVel3DDynamic 3D/onsasExample_BladeCantileverBeamPitch_windVel3DDynamic 3D_0347.vtk
ASCII
DATASET UNSTRUCTURED_GRID

POINTS 800 float
       1.450343e-23      -7.180703e-02      -7.180703e-02 
       1.328465e-23       7.180703e-02      -7.180703e-02 
      -1.450343e-23       7.180703e-02       7.180703e-02 
      -1.328465e-23      -7.180703e-02       7.180703e-02 
       2.000000e-01      -7.180702e-02      -7.180706e-02 
       2.000000e-01       7.180705e-02      -7.180706e-02 
       2.000000e-01       7.180705e-02       7.180700e-02 
       2.000000e-01      -7.180702e-02       7.180700e-02 
       2.000000e-01      -7.180702e-02      -7.180706e-02 
       2.000000e-01       7.180705e-02      -7.180706e-02 
       2.000000e-01       7.180705e-02       7.180700e-02 
       2.000000e-01      -7.180702e-02       7.180700e-02 
       4.000000e-01      -7.180698e-02      -7.180715e-02 
       3.999999e-01       7.180709e-02      -7.180715e-02 
       4.000000e-01       7.180709e-02       7.180692e-02 
       4.000001e-01      -7.180698e-02       7.180692e-02 
       4.000000e-01      -7.180698e-02      -7.180715e-02 
       3.999999e-01       7.180709e-02      -7.180715e-02 
       4.000000e-01       7.180709e-02       7.180692e-02 
       4.000001e-01      -7.180698e-02       7.180692e-02 
       6.000000e-01      -7.180691e-02      -7.180729e-02 
       5.999999e-01       7.180716e-02      -7.180729e-02 
       6.000000e-01       7.180716e-02       7.180678e-02 
       6.000001e-01      -7.180691e-02       7.180678e-02 
       6.000000e-01      -7.180691e-02      -7.180729e-02 
       5.999999e-01       7.180716e-02      -7.180729e-02 
       6.000000e-01       7.180716e-02       7.180678e-02 
       6.000001e-01      -7.180691e-02       7.180678e-02 
       8.000000e-01      -7.180682e-02      -7.180749e-02 
       7.999999e-01       7.180725e-02      -7.180749e-02 
       8.000000e-01       7.180725e-02       7.180658e-02 
       8.000001e-01      -7.180682e-02       7.180658e-02 
       8.000000e-01      -7.180682e-02      -7.180749e-02 
       7.999999e-01       7.180725e-02      -7.180749e-02 
       8.000000e-01       7.180725e-02       7.180658e-02 
       8.000001e-01      -7.180682e-02       7.180658e-02 
       9.999999e-01      -7.180670e-02      -7.180774e-02 
       9.999999e-01       7.180737e-02      -7.180774e-02 
       1.000000e+00       7.180737e-02       7.180633e-02 
       1.000000e+00      -7.180670e-02       7.180633e-02 
       9.999999e-01      -7.180670e-02      -7.180774e-02 
       9.999999e-01       7.180737e-02      -7.180774e-02 
       1.000000e+00       7.180737e-02       7.180633e-02 
       1.000000e+00      -7.180670e-02       7.180633e-02 
       1.200000e+00      -7.180655e-02      -7.180804e-02 
       1.200000e+00       7.180752e-02      -7.180804e-02 
       1.200000e+00       7.180752e-02       7.180602e-02 
       1.200000e+00      -7.180655e-02       7.180602e-02 
       1.200000e+00      -7.180655e-02      -7.180804e-02 
       1.200000e+00       7.180752e-02      -7.180804e-02 
       1.200000e+00       7.180752e-02       7.180602e-02 
       1.200000e+00      -7.180655e-02       7.180602e-02 
       1.400000e+00      -7.180638e-02      -7.180840e-02 
       1.400000e+00       7.180769e-02      -7.180840e-02 
       1.400000e+00       7.180769e-02       7.180567e-02 
       1.400000e+00      -7.180638e-02       7.180567e-02 
       1.400000e+00      -7.180638e-02      -7.180840e-02 
       1.400000e+00       7.180769e-02      -7.180840e-02 
       1.400000e+00       7.180769e-02       7.180567e-02 
       1.400000e+00      -7.180638e-02       7.180567e-02 
       1.600000e+00      -7.180619e-02      -7.180880e-02 
       1.600000e+00       7.180788e-02      -7.180881e-02 
       1.600000e+00       7.180788e-02       7.180526e-02 
       1.600000e+00      -7.180619e-02       7.180526e-02 
       1.600000e+00      -7.180619e-02      -7.180880e-02 
       1.600000e+00       7.180788e-02      -7.180881e-02 
       1.600000e+00       7.180788e-02       7.180526e-02 
       1.600000e+00      -7.180619e-02       7.180526e-02 
       1.800000e+00      -7.180597e-02      -7.180926e-02 
       1.800000e+00       7.180810e-02      -7.180926e-02 
       1.800000e+00       7.180810e-02       7.180480e-02 
       1.800000e+00      -7.180597e-02       7.180480e-02 
       1.800000e+00      -7.180597e-02      -7.180926e-02 
       1.800000e+00       7.180810e-02      -7.180926e-02 
       1.800000e+00       7.180810e-02       7.180480e-02 
       1.800000e+00      -7.180597e-02       7.180480e-02 
       2.000000e+00      -7.180573e-02      -7.180977e-02 
       2.000000e+00       7.180834e-02      -7.180977e-02 
       2.000000e+00       7.180834e-02       7.180430e-02 
       2.000000e+00      -7.180573e-02       7.180430e-02 
       2.000000e+00      -7.180573e-02      -7.180977e-02 
       2.000000e+00       7.180834e-02      -7.180977e-02 
       2.000000e+00       7.180834e-02       7.180430e-02 
       2.000000e+00      -7.180573e-02       7.180430e-02 
       2.200000e+00      -7.180546e-02      -7.181032e-02 
       2.200000e+00       7.180860e-02      -7.181032e-02 
       2.200000e+00       7.180860e-02       7.180375e-02 
       2.200000e+00      -7.180546e-02       7.180375e-02 
       2.200000e+00      -7.180546e-02      -7.181032e-02 
       2.200000e+00       7.180860e-02      -7.181032e-02 
       2.200000e+00       7.180860e-02       7.180375e-02 
       2.200000e+00      -7.180546e-02       7.180375e-02 
       2.400000e+00      -7.180518e-02      -7.181092e-02 
       2.400000e+00       7.180889e-02      -7.181092e-02 
       2.400000e+00       7.180889e-02       7.180315e-02 
       2.400000e+00      -7.180518e-02       7.180315e-02 
       2.400000e+00      -7.180518e-02      -7.181092e-02 
       2.400000e+00       7.180889e-02      -7.181092e-02 
       2.400000e+00       7.180889e-02       7.180315e-02 
       2.400000e+00      -7.180518e-02       7.180315e-02 
       2.600000e+00      -7.180487e-02      -7.181156e-02 
       2.600000e+00       7.180919e-02      -7.181157e-02 
       2.600000e+00       7.180920e-02       7.180250e-02 
       2.600000e+00      -7.180487e-02       7.180250e-02 
       2.600000e+00      -7.180487e-02      -7.181156e-02 
       2.600000e+00       7.180919e-02      -7.181157e-02 
       2.600000e+00       7.180920e-02       7.180250e-02 
       2.600000e+00      -7.180487e-02       7.180250e-02 
       2.800000e+00      -7.180454e-02      -7.181225e-02 
       2.800000e+00       7.180952e-02      -7.181226e-02 
       2.800000e+00       7.180953e-02       7.180181e-02 
       2.800000e+00      -7.180454e-02       7.180181e-02 
       2.800000e+00      -7.180454e-02      -7.181225e-02 
       2.800000e+00       7.180952e-02      -7.181226e-02 
       2.800000e+00       7.180953e-02       7.180181e-02 
       2.800000e+00      -7.180454e-02       7.180181e-02 
       3.000000e+00      -7.180419e-02      -7.181299e-02 
       3.000000e+00       7.180987e-02      -7.181299e-02 
       3.000000e+00       7.180987e-02       7.180108e-02 
       3.000000e+00      -7.180419e-02       7.180108e-02 
       3.000000e+00      -7.180419e-02      -7.181299e-02 
       3.000000e+00       7.180987e-02      -7.181299e-02 
       3.000000e+00       7.180987e-02       7.180108e-02 
       3.000000e+00      -7.180419e-02       7.180108e-02 
       3.200000e+00      -7.180382e-02      -7.181376e-02 
       3.200000e+00       7.181024e-02      -7.181377e-02 
       3.200000e+00       7.181024e-02       7.180030e-02 
       3.200000e+00      -7.180382e-02       7.180030e-02 
       3.200000e+00      -7.180382e-02      -7.181376e-02 
       3.200000e+00       7.181024e-02      -7.181377e-02 
       3.200000e+00       7.181024e-02       7.180030e-02 
       3.200000e+00      -7.180382e-02       7.180030e-02 
       3.400000e+00      -7.180343e-02      -7.181458e-02 
       3.400000e+00       7.181063e-02      -7.181458e-02 
       3.400000e+00       7.181063e-02       7.179948e-02 
       3.400000e+00      -7.180343e-02       7.179948e-02 
       3.400000e+00      -7.180343e-02      -7.181458e-02 
       3.400000e+00       7.181063e-02      -7.181458e-02 
       3.400000e+00       7.181063e-02       7.179948e-02 
       3.400000e+00      -7.180343e-02       7.179948e-02 
       3.600000e+00      -7.180303e-02      -7.181544e-02 
       3.600000e+00       7.181104e-02      -7.181544e-02 
       3.600000e+00       7.181104e-02       7.179862e-02 
       3.600000e+00      -7.180302e-02       7.179863e-02 
       3.600000e+00      -7.180303e-02      -7.181544e-02 
       3.600000e+00       7.181104e-02      -7.181544e-02 
       3.600000e+00       7.181104e-02       7.179862e-02 
       3.600000e+00      -7.180302e-02       7.179863e-02 
       3.800000e+00      -7.180260e-02      -7.181634e-02 
       3.800000e+00       7.181147e-02      -7.181634e-02 
       3.800000e+00       7.181147e-02       7.179772e-02 
       3.800000e+00      -7.180260e-02       7.179773e-02 
       3.800000e+00      -7.180260e-02      -7.181634e-02 
       3.800000e+00       7.181147e-02      -7.181634e-02 
       3.800000e+00       7.181147e-02       7.179772e-02 
       3.800000e+00      -7.180260e-02       7.179773e-02 
       4.000000e+00      -7.180215e-02      -7.181728e-02 
       3.999999e+00       7.181191e-02      -7.181728e-02 
       4.000000e+00       7.181192e-02       7.179679e-02 
       4.000001e+00      -7.180215e-02       7.179679e-02 
       4.000000e+00      -7.180215e-02      -7.181728e-02 
       3.999999e+00       7.181191e-02      -7.181728e-02 
       4.000000e+00       7.181192e-02       7.179679e-02 
       4.000001e+00      -7.180215e-02       7.179679e-02 
       4.200000e+00      -7.180169e-02      -7.181825e-02 
[...]
POINT_DATA       800 
VECTORS Displacements float
       1.45034303e-23      -1.38777878e-17       0.00000000e+00 
       1.32846494e-23       1.38777878e-17       0.00000000e+00 
      -1.45034303e-23       1.38777878e-17       0.00000000e+00 
      -1.32846494e-23      -1.38777878e-17       0.00000000e+00 
      -1.08404362e-08       1.37745562e-08      -2.88550964e-08 
      -3.06696577e-08       1.37745548e-08      -2.90085619e-08 
       1.07535279e-08       1.39280261e-08      -2.90085678e-08 
       3.05827494e-08       1.39280274e-08      -2.88551023e-08 
      -1.08404362e-08       1.37745562e-08      -2.88550964e-08 
      -3.06696577e-08       1.37745548e-08      -2.90085619e-08 
       1.07535279e-08       1.39280261e-08      -2.90085678e-08 
       3.05827494e-08       1.39280274e-08      -2.88551023e-08 
      -2.14895224e-08       5.48997482e-08      -1.14866429e-07 
      -6.07688851e-08       5.48997428e-08      -1.15173354e-07 
       2.13155137e-08       5.52066908e-08      -1.15173378e-07 
       6.05948766e-08       5.52066962e-08      -1.14866452e-07 
      -2.14895224e-08       5.48997482e-08      -1.14866429e-07 
      -6.07688851e-08       5.48997428e-08      -1.15173354e-07 
       2.13155137e-08       5.52066908e-08      -1.15173378e-07 
       6.05948766e-08       5.52066962e-08      -1.14866452e-07 
      -3.19472568e-08       1.22847661e-07      -2.56972859e-07 
      -9.02976804e-08       1.22847649e-07      -2.57433239e-07 
       3.16859595e-08       1.23308079e-07      -2.57433291e-07 
       9.00363831e-08       1.23308091e-07      -2.56972911e-07 
      -3.19472568e-08       1.22847661e-07      -2.56972859e-07 
      -9.02976804e-08       1.22847649e-07      -2.57433239e-07 
       3.16859595e-08       1.23308079e-07      -2.57433291e-07 
       9.00363831e-08       1.23308091e-07      -2.56972911e-07 
      -4.22136377e-08       2.17090378e-07      -4.54113248e-07 
      -1.19256042e-07       2.17090358e-07      -4.54727079e-07 
       4.18648668e-08       2.17704274e-07      -4.54727169e-07 
       1.18907271e-07       2.17704295e-07      -4.54113339e-07 
      -4.22136377e-08       2.17090378e-07      -4.54113248e-07 
      -1.19256042e-07       2.17090358e-07      -4.54727079e-07 
       4.18648668e-08       2.17704274e-07      -4.54727169e-07 
       1.18907271e-07       2.17704295e-07      -4.54113339e-07 
      -5.22886632e-08       3.37099986e-07      -7.05226458e-07 
      -1.47643968e-07       3.37099954e-07      -7.05993734e-07 
       5.18522376e-08       3.37867362e-07      -7.05993872e-07 
       1.47207542e-07       3.37867394e-07      -7.05226596e-07 
      -5.22886632e-08       3.37099986e-07      -7.05226458e-07 
      -1.47643968e-07       3.37099954e-07      -7.05993734e-07 
       5.18522376e-08       3.37867362e-07      -7.05993872e-07 
       1.47207542e-07       3.37867394e-07      -7.05226596e-07 
      -6.21723317e-08       4.82348568e-07      -1.00925135e-06 
      -1.75461456e-07       4.82348523e-07      -1.01017207e-06 
       6.16480738e-08       4.83269427e-07      -1.01017226e-06 
       1.74937198e-07       4.83269472e-07      -1.00925155e-06 
      -6.21723317e-08       4.82348568e-07      -1.00925135e-06 
      -1.75461456e-07       4.82348523e-07      -1.01017207e-06 
       6.16480738e-08       4.83269427e-07      -1.01017226e-06 
       1.74937198e-07       4.83269472e-07      -1.00925155e-06 
      -7.18646409e-08       6.52308209e-07      -1.36512678e-06 
      -2.02708504e-07       6.52308150e-07      -1.36620094e-06 
       7.12523771e-08       6.53382553e-07      -1.36620120e-06 
       2.02096240e-07       6.53382613e-07      -1.36512705e-06 
      -7.18646409e-08       6.52308209e-07      -1.36512678e-06 
      -2.02708504e-07       6.52308150e-07      -1.36620094e-06 
       7.12523771e-08       6.53382553e-07      -1.36620120e-06 
       2.02096240e-07       6.53382613e-07      -1.36512705e-06 
      -8.13655898e-08       8.46450994e-07      -1.77179162e-06 
      -2.29385113e-07       8.46450918e-07      -1.77301921e-06 
       8.06651486e-08       8.47678825e-07      -1.77301955e-06 
       2.28684672e-07       8.47678902e-07      -1.77179196e-06 
      -8.13655898e-08       8.46450994e-07      -1.77179162e-06 
      -2.29385113e-07       8.46450918e-07      -1.77301921e-06 
       8.06651486e-08       8.47678825e-07      -1.77301955e-06 
       2.28684672e-07       8.47678902e-07      -1.77179196e-06 
      -9.06751756e-08       1.06424901e-06      -2.22818473e-06 
      -2.55491277e-07       1.06424891e-06      -2.22956575e-06 
       8.98863912e-08       1.06563033e-06      -2.22956616e-06 
       2.54702493e-07       1.06563042e-06      -2.22818514e-06 
      -9.06751756e-08       1.06424901e-06      -2.22818473e-06 
      -2.55491277e-07       1.06424891e-06      -2.22956575e-06 
       8.98863912e-08       1.06563033e-06      -2.22956616e-06 
       2.54702493e-07       1.06563042e-06      -2.22818514e-06 
      -9.97933978e-08       1.30517434e-06      -2.73324496e-06 
      -2.81026998e-07       1.30517422e-06      -2.73477941e-06 
       9.89161064e-08       1.30670915e-06      -2.73477991e-06 
       2.80149706e-07       1.30670926e-06      -2.73324546e-06 
      -9.97933975e-08       1.30517434e-06      -2.73324496e-06 
      -2.81026998e-07       1.30517422e-06      -2.73477941e-06 
       9.89161060e-08       1.30670915e-06      -2.73477991e-06 
       2.80149707e-07       1.30670926e-06      -2.73324546e-06 
      -1.08713404e-07       1.56871614e-06      -3.28593546e-06 
      -3.06005076e-07       1.56871600e-06      -3.28760727e-06 
       1.07777273e-07       1.57038839e-06      -3.28760787e-06 
       3.05068945e-07       1.57038852e-06      -3.28593605e-06 
      -1.08713404e-07       1.56871614e-06      -3.28593546e-06 
      -3.06005076e-07       1.56871600e-06      -3.28760727e-06 
       1.07777273e-07       1.57038839e-06      -3.28760787e-06 
       3.05068945e-07       1.57038852e-06      -3.28593605e-06 
      -1.17459562e-07       1.85438460e-06      -3.88527265e-06 
      -3.30470156e-07       1.85438444e-06      -3.88708183e-06 
       1.16464163e-07       1.85619429e-06      -3.88708253e-06 
       3.29474758e-07       1.85619444e-06      -3.88527334e-06 
      -1.17459562e-07       1.85438460e-06      -3.88527265e-06 
      -3.30470156e-07       1.85438444e-06      -3.88708183e-06 
       1.16464163e-07       1.85619429e-06      -3.88708253e-06 
       3.29474758e-07       1.85619444e-06      -3.88527334e-06 
      -1.26031866e-07       2.16170740e-06      -4.53029941e-06 
      -3.54422233e-07       2.16170722e-06      -4.53224597e-06 
       1.24976779e-07       2.16365454e-06      -4.53224677e-06 
       3.53367146e-07       2.16365472e-06      -4.53030021e-06 
      -1.26031866e-07       2.16170740e-06      -4.53029941e-06 
      -3.54422233e-07       2.16170722e-06      -4.53224597e-06 
       1.24976779e-07       2.16365454e-06      -4.53224677e-06 
       3.53367146e-07       2.16365472e-06      -4.53030021e-06 
      -1.34430313e-07       2.49021226e-06      -5.22005864e-06 
      -3.77861304e-07       2.49021205e-06      -5.22214256e-06 
       1.33315125e-07       2.49229683e-06      -5.22214347e-06 
       3.76746117e-07       2.49229704e-06      -5.22005955e-06 
      -1.34430313e-07       2.49021226e-06      -5.22005864e-06 
      -3.77861304e-07       2.49021205e-06      -5.22214256e-06 
       1.33315125e-07       2.49229683e-06      -5.22214347e-06 
       3.76746117e-07       2.49229704e-06      -5.22005955e-06 
      -1.42654898e-07       2.83942685e-06      -5.95359322e-06 
      -4.00787364e-07       2.83942661e-06      -5.95581450e-06 
       1.41479206e-07       2.84164887e-06      -5.95581553e-06 
       3.99611674e-07       2.84164910e-06      -5.95359425e-06 
      -1.42654898e-07       2.83942685e-06      -5.95359322e-06 
      -4.00787364e-07       2.83942661e-06      -5.95581450e-06 
       1.41479206e-07       2.84164887e-06      -5.95581553e-06 
       3.99611674e-07       2.84164910e-06      -5.95359425e-06 
      -1.50705616e-07       3.20887887e-06      -6.72994604e-06 
      -4.23200409e-07       3.20887861e-06      -6.73230468e-06 
       1.49469026e-07       3.21123833e-06      -6.73230582e-06 
       4.21963819e-07       3.21123859e-06      -6.72994718e-06 
      -1.50705616e-07       3.20887887e-06      -6.72994604e-06 
      -4.23200409e-07       3.20887861e-06      -6.73230468e-06 
       1.49469026e-07       3.21123833e-06      -6.73230582e-06 
       4.21963819e-07       3.21123859e-06      -6.72994718e-06 
      -1.58582463e-07       3.59809602e-06      -7.54815997e-06 
      -4.45100433e-07       3.59809573e-06      -7.55065596e-06 
       1.57284592e-07       3.60059293e-06      -7.55065723e-06 
       4.43802561e-07       3.60059321e-06      -7.54816123e-06 
      -1.58582463e-07       3.59809602e-06      -7.54815997e-06 
      -4.45100433e-07       3.59809573e-06      -7.55065596e-06 
       1.57284592e-07       3.60059293e-06      -7.55065723e-06 
       4.43802561e-07       3.60059321e-06      -7.54816123e-06 
      -1.66285435e-07       4.00660598e-06      -8.40727790e-06 
      -4.66487433e-07       4.00660567e-06      -8.40991125e-06 
       1.64925904e-07       4.00924034e-06      -8.40991264e-06 
       4.65127902e-07       4.00924066e-06      -8.40727929e-06 
      -1.66285435e-07       4.00660598e-06      -8.40727790e-06 
      -4.66487433e-07       4.00660567e-06      -8.40991125e-06 
       1.64925904e-07       4.00924034e-06      -8.40991264e-06 
       4.65127902e-07       4.00924066e-06      -8.40727929e-06 
      -1.73814527e-07       4.43393646e-06      -9.30634272e-06 
      -4.87361403e-07       4.43393612e-06      -9.30911343e-06 
       1.72392971e-07       4.43670827e-06      -9.30911495e-06 
       4.85939847e-07       4.43670861e-06      -9.30634423e-06 
      -1.73814527e-07       4.43393646e-06      -9.30634272e-06 
      -4.87361403e-07       4.43393612e-06      -9.30911343e-06 
       1.72392971e-07       4.43670827e-06      -9.30911495e-06 
       4.85939847e-07       4.43670861e-06      -9.30634423e-06 
      -1.81169735e-07       4.87961515e-06      -1.02443973e-05 
      -5.07722341e-07       4.87961477e-06      -1.02473054e-05 
       1.79685793e-07       4.88252440e-06      -1.02473070e-05 
       5.06238400e-07       4.88252478e-06      -1.02443990e-05 
      -1.81169735e-07       4.87961515e-06      -1.02443973e-05 
      -5.07722341e-07       4.87961477e-06      -1.02473054e-05 
       1.79685794e-07       4.88252440e-06      -1.02473070e-05 
       5.06238400e-07       4.88252478e-06      -1.02443990e-05 
      -1.88349378e-07       5.34318713e-06      -1.12205102e-05 
      -5.27588674e-07       5.34318673e-06      -1.12235395e-05 
       1.86823753e-07       5.34621775e-06      -1.12235413e-05 
       5.26063049e-07       5.34621815e-06      -1.12205119e-05 
      -1.88349378e-07       5.34318713e-06      -1.12205102e-05 
      -5.27588674e-07       5.34318673e-06      -1.12235395e-05 
       1.86823753e-07       5.34621775e-06      -1.12235413e-05 
       5.26063049e-07       5.34621815e-06      -1.12205119e-05 
      -1.95373021e-07       5.82421861e-06      -1.22338039e-05 
      -5.46999917e-07       5.82421818e-06      -1.22369545e-05 
       1.93805196e-07       5.82737058e-06      -1.22369564e-05 
       5.45432091e-07       5.82737101e-06      -1.22338058e-05 
      -1.95373021e-07       5.82421861e-06      -1.22338039e-05 
      -5.46999917e-07       5.82421818e-06      -1.22369545e-05 
       1.93805196e-07       5.82737058e-06      -1.22369564e-05 
       5.45432091e-07       5.82737101e-06      -1.22338058e-05 
      -2.02240655e-07       6.32229306e-06      -1.32834267e-05 
      -5.65956062e-07       6.32229260e-06      -1.32866986e-05 
       2.00630129e-07       6.32556640e-06      -1.32867006e-05 
       5.64345536e-07       6.32556686e-06      -1.32834288e-05 
      -2.02240655e-07       6.32229306e-06      -1.32834267e-05 
      -5.65956062e-07       6.32229260e-06      -1.32866986e-05 
       2.00630129e-07       6.32556640e-06      -1.32867006e-05 
       5.64345536e-07       6.32556686e-06      -1.32834288e-05 
      -2.08952277e-07       6.83699397e-06      -1.43685270e-05 
      -5.84457104e-07       6.83699348e-06      -1.43719201e-05 
       2.07298557e-07       6.84038866e-06      -1.43719223e-05 
       5.82803384e-07       6.84038915e-06      -1.43685292e-05 
      -2.08952277e-07       6.83699397e-06      -1.43685270e-05 
      -5.84457104e-07       6.83699348e-06      -1.43719201e-05 
       2.07298557e-07       6.84038866e-06      -1.43719223e-05 
       5.82803384e-07       6.84038915e-06      -1.43685292e-05 
      -2.15507881e-07       7.36790481e-06      -1.54882530e-05 
      -6.02503039e-07       7.36790429e-06      -1.54917673e-05 
       2.13810486e-07       7.37142087e-06      -1.54917697e-05 
       6.00805643e-07       7.37142139e-06      -1.54882553e-05 
      -2.15507881e-07       7.36790481e-06      -1.54882530e-05 
      -6.02503039e-07       7.36790429e-06      -1.54917673e-05 
       2.13810486e-07       7.37142087e-06      -1.54917697e-05 
       6.00805643e-07       7.37142139e-06      -1.54882553e-05 
      -2.21907459e-07       7.91460907e-06      -1.66417529e-05 
      -6.20093858e-07       7.91460852e-06      -1.66453885e-05 
       2.20165923e-07       7.91824649e-06      -1.66453909e-05 
       6.18352321e-07       7.91824704e-06      -1.66417553e-05 
      -2.21907459e-07       7.91460907e-06      -1.66417529e-05 
      -6.20093858e-07       7.91460852e-06      -1.66453885e-05 
       2.20165923e-07       7.91824649e-06      -1.66453909e-05 
       6.18352321e-07       7.91824704e-06      -1.66417553e-05 
      -2.28151007e-07       8.47669023e-06      -1.78281749e-05 
      -6.37229556e-07       8.47668965e-06      -1.78319318e-05 
       2.26364874e-07       8.48044900e-06      -1.78319344e-05 
       6.35443422e-07       8.48044959e-06      -1.78281775e-05 
      -2.28151007e-07       8.47669023e-06      -1.78281749e-05 
      -6.37229556e-07       8.47668965e-06      -1.78319318e-05 
       2.26364874e-07       8.48044900e-06      -1.78319344e-05 
       6.35443422e-07       8.48044959e-06      -1.78281775e-05 
      -2.34238517e-07       9.05373177e-06      -1.90466675e-05 
      -6.53910126e-07       9.05373116e-06      -1.90505456e-05 
       2.32407344e-07       9.05761190e-06      -1.90505484e-05 
       6.52078954e-07       9.05761252e-06      -1.90466702e-05 
      -2.34238517e-07       9.05373177e-06      -1.90466675e-05 
      -6.53910126e-07       9.05373116e-06      -1.90505456e-05 
       2.32407344e-07       9.05761190e-06      -1.90505484e-05 
       6.52078954e-07       9.05761252e-06      -1.90466702e-05 
      -2.40169984e-07       9.64531717e-06      -2.02963787e-05 
      -6.70135565e-07       9.64531652e-06      -2.03003782e-05 
       2.38293339e-07       9.64931866e-06      -2.03003810e-05 
       6.68258919e-07       9.64931930e-06      -2.02963816e-05 
      -2.40169984e-07       9.64531717e-06      -2.02963787e-05 
      -6.70135565e-07       9.64531652e-06      -2.03003782e-05 
       2.38293339e-07       9.64931866e-06      -2.03003810e-05 
       6.68258919e-07       9.64931930e-06      -2.02963816e-05 
      -2.45945404e-07       1.02510299e-05      -2.15764570e-05 
      -6.85905865e-07       1.02510292e-05      -2.15805777e-05 
       2.44022865e-07       1.02551528e-05      -2.15805807e-05 
       6.83983327e-07       1.02551534e-05      -2.15764600e-05 
      -2.45945404e-07       1.02510299e-05      -2.15764570e-05 
      -6.85905865e-07       1.02510292e-05      -2.15805777e-05 
       2.44022865e-07       1.02551528e-05      -2.15805807e-05 
       6.83983327e-07       1.02551534e-05      -2.15764600e-05 
      -2.51566544e-07       1.08704709e-05      -2.28860762e-05 
      -7.01242910e-07       1.08704702e-05      -2.28903020e-05 
       2.49611950e-07       1.08746990e-05      -2.28903051e-05 
       6.99288314e-07       1.08746997e-05      -2.28860793e-05 
      -2.51566544e-07       1.08704709e-05      -2.28860762e-05 
      -7.01242910e-07       1.08704702e-05      -2.28903020e-05 
       2.49611950e-07       1.08746990e-05      -2.28903051e-05 
       6.99288314e-07       1.08746997e-05      -2.28860793e-05 
      -2.57049484e-07       1.15032620e-05      -2.42244642e-05 
      -7.16182487e-07       1.15032612e-05      -2.42287952e-05 
       2.55062331e-07       1.15075953e-05      -2.42287985e-05 
       7.14195334e-07       1.15075960e-05      -2.42244675e-05 
      -2.57049484e-07       1.15032620e-05      -2.42244642e-05 
      -7.16182487e-07       1.15032612e-05      -2.42287952e-05 
       2.55062331e-07       1.15075953e-05      -2.42287985e-05 
       7.14195334e-07       1.15075960e-05      -2.42244675e-05 
      -2.62394215e-07       1.21490420e-05      -2.55908744e-05 
      -7.30724588e-07       1.21490412e-05      -2.55953105e-05 
       2.60374017e-07       1.21534806e-05      -2.55953139e-05 
       7.28704391e-07       1.21534813e-05      -2.55908778e-05 
      -2.62394215e-07       1.21490420e-05      -2.55908744e-05 
      -7.30724588e-07       1.21490412e-05      -2.55953105e-05 
       2.60374017e-07       1.21534806e-05      -2.55953139e-05 
       7.28704391e-07       1.21534813e-05      -2.55908778e-05 
      -2.67600732e-07       1.28074499e-05      -2.69845600e-05 
      -7.44869210e-07       1.28074491e-05      -2.69891013e-05 
       2.65547013e-07       1.28119938e-05      -2.69891048e-05 
       7.42815491e-07       1.28119945e-05      -2.69845636e-05 
      -2.67600732e-07       1.28074499e-05      -2.69845600e-05 
      -7.44869210e-07       1.28074491e-05      -2.69891013e-05 
       2.65547013e-07       1.28119938e-05      -2.69891048e-05 
       7.42815491e-07       1.28119945e-05      -2.69845636e-05 
      -2.72669028e-07       1.34781247e-05      -2.84047745e-05 
      -7.58616345e-07       1.34781239e-05      -2.84094209e-05 
       2.70581324e-07       1.34827738e-05      -2.84094245e-05 
       7.56528642e-07       1.34827746e-05      -2.84047781e-05 
      -2.72669028e-07       1.34781247e-05      -2.84047745e-05 
      -7.58616345e-07       1.34781239e-05      -2.84094209e-05 
       2.70581324e-07       1.34827738e-05      -2.84094245e-05 
       7.56528642e-07       1.34827746e-05      -2.84047781e-05 
      -2.77599097e-07       1.41607054e-05      -2.98507710e-05 
      -7.71965985e-07       1.41607045e-05      -2.98555225e-05 
       2.75476959e-07       1.41654597e-05      -2.98555263e-05 
       7.69843849e-07       1.41654605e-05      -2.98507748e-05 
      -2.77599097e-07       1.41607054e-05      -2.98507710e-05 
      -7.71965985e-07       1.41607045e-05      -2.98555225e-05 
       2.75476959e-07       1.41654597e-05      -2.98555263e-05 
       7.69843849e-07       1.41654605e-05      -2.98507748e-05 
      -2.82390930e-07       1.48548307e-05      -3.13218029e-05 
      -7.84918125e-07       1.48548298e-05      -3.13266596e-05 
       2.80233925e-07       1.48596903e-05      -3.13266636e-05 
       7.82761120e-07       1.48596911e-05      -3.13218069e-05 
      -2.82390930e-07       1.48548307e-05      -3.13218029e-05 
      -7.84918125e-07       1.48548298e-05      -3.13266596e-05 
       2.80233925e-07       1.48596903e-05      -3.13266636e-05 
       7.82761120e-07       1.48596911e-05      -3.13218069e-05 
      -2.87044522e-07       1.55601398e-05      -3.28171236e-05 
      -7.97472758e-07       1.55601389e-05      -3.28220854e-05 
       2.84852227e-07       1.55651045e-05      -3.28220895e-05 
       7.95280462e-07       1.55651055e-05      -3.28171277e-05 
      -2.87044522e-07       1.55601398e-05      -3.28171236e-05 
      -7.97472758e-07       1.55601389e-05      -3.28220854e-05 