# vtk DataFile Version 2.0
./output/onsasExample_BladeCantileverBeamPitch_windVel3DDynamic 3D/onsasExample_BladeCantileverBeamPitch_windVel3DDynamic 3D_0228.vtk
ASCII
DATASET UNSTRUCTURED_GRID

POINTS 800 float
      -1.303119e-23      -7.180703e-02      -7.180703e-02 
      -5.442835e-24       7.180703e-02      -7.180703e-02 
       1.303119e-23       7.180703e-02       7.180703e-02 
       5.442835e-24      -7.180703e-02       7.180703e-02 
       2.000000e-01      -7.180702e-02      -7.180706e-02 
       2.000000e-01       7.180705e-02      -7.180706e-02 
       2.000000e-01       7.180705e-02       7.180701e-02 
       2.000000e-01      -7.180702e-02       7.180701e-02 
       2.000000e-01      -7.180702e-02      -7.180706e-02 
       2.000000e-01       7.180705e-02      -7.180706e-02 
       2.000000e-01       7.180705e-02       7.180701e-02 
       2.000000e-01      -7.180702e-02       7.180701e-02 
       4.000000e-01      -7.180698e-02      -7.180713e-02 
       3.999999e-01       7.180709e-02      -7.180713e-02 
       4.000000e-01       7.180709e-02       7.180694e-02 
       4.000001e-01      -7.180698e-02       7.180694e-02 
       4.000000e-01      -7.180698e-02      -7.180713e-02 
       3.999999e-01       7.180709e-02      -7.180713e-02 
       4.000000e-01       7.180709e-02       7.180694e-02 
       4.000001e-01      -7.180698e-02       7.180694e-02 
       6.000000e-01      -7.180691e-02      -7.180725e-02 
       5.999999e-01       7.180715e-02      -7.180725e-02 
       6.000000e-01       7.180715e-02       7.180682e-02 
       6.000001e-01      -7.180691e-02       7.180682e-02 
       6.000000e-01      -7.180691e-02      -7.180725e-02 
       5.999999e-01       7.180715e-02      -7.180725e-02 
       6.000000e-01       7.180715e-02       7.180682e-02 
       6.000001e-01      -7.180691e-02       7.180682e-02 
       8.000000e-01      -7.180682e-02      -7.180741e-02 
       7.999999e-01       7.180725e-02      -7.180742e-02 
       8.000000e-01       7.180725e-02       7.180665e-02 
       8.000001e-01      -7.180682e-02       7.180665e-02 
       8.000000e-01      -7.180682e-02      -7.180741e-02 
       7.999999e-01       7.180725e-02      -7.180742e-02 
       8.000000e-01       7.180725e-02       7.180665e-02 
       8.000001e-01      -7.180682e-02       7.180665e-02 
       1.000000e+00      -7.180670e-02      -7.180763e-02 
       9.999999e-01       7.180737e-02      -7.180763e-02 
       1.000000e+00       7.180737e-02       7.180644e-02 
       1.000000e+00      -7.180670e-02       7.180644e-02 
       1.000000e+00      -7.180670e-02      -7.180763e-02 
       9.999999e-01       7.180737e-02      -7.180763e-02 
       1.000000e+00       7.180737e-02       7.180644e-02 
       1.000000e+00      -7.180670e-02       7.180644e-02 
       1.200000e+00      -7.180656e-02      -7.180788e-02 
       1.200000e+00       7.180751e-02      -7.180788e-02 
       1.200000e+00       7.180751e-02       7.180619e-02 
       1.200000e+00      -7.180656e-02       7.180619e-02 
       1.200000e+00      -7.180656e-02      -7.180788e-02 
       1.200000e+00       7.180751e-02      -7.180788e-02 
       1.200000e+00       7.180751e-02       7.180619e-02 
       1.200000e+00      -7.180656e-02       7.180619e-02 
       1.400000e+00      -7.180639e-02      -7.180818e-02 
       1.400000e+00       7.180768e-02      -7.180818e-02 
       1.400000e+00       7.180768e-02       7.180589e-02 
       1.400000e+00      -7.180639e-02       7.180589e-02 
       1.400000e+00      -7.180639e-02      -7.180818e-02 
       1.400000e+00       7.180768e-02      -7.180818e-02 
       1.400000e+00       7.180768e-02       7.180589e-02 
       1.400000e+00      -7.180639e-02       7.180589e-02 
       1.600000e+00      -7.180620e-02      -7.180852e-02 
       1.600000e+00       7.180787e-02      -7.180852e-02 
       1.600000e+00       7.180787e-02       7.180555e-02 
       1.600000e+00      -7.180620e-02       7.180555e-02 
       1.600000e+00      -7.180620e-02      -7.180852e-02 
       1.600000e+00       7.180787e-02      -7.180852e-02 
       1.600000e+00       7.180787e-02       7.180555e-02 
       1.600000e+00      -7.180620e-02       7.180555e-02 
       1.800000e+00      -7.180598e-02      -7.180890e-02 
       1.800000e+00       7.180808e-02      -7.180890e-02 
       1.800000e+00       7.180808e-02       7.180516e-02 
       1.800000e+00      -7.180598e-02       7.180517e-02 
       1.800000e+00      -7.180598e-02      -7.180890e-02 
       1.800000e+00       7.180808e-02      -7.180890e-02 
       1.800000e+00       7.180808e-02       7.180516e-02 
       1.800000e+00      -7.180598e-02       7.180517e-02 
       2.000000e+00      -7.180575e-02      -7.180932e-02 
       2.000000e+00       7.180832e-02      -7.180932e-02 
       2.000000e+00       7.180832e-02       7.180474e-02 
       2.000000e+00      -7.180574e-02       7.180474e-02 
       2.000000e+00      -7.180575e-02      -7.180932e-02 
       2.000000e+00       7.180832e-02      -7.180932e-02 
       2.000000e+00       7.180832e-02       7.180474e-02 
       2.000000e+00      -7.180574e-02       7.180474e-02 
       2.200000e+00      -7.180549e-02      -7.180978e-02 
       2.200000e+00       7.180858e-02      -7.180978e-02 
       2.200000e+00       7.180858e-02       7.180428e-02 
       2.200000e+00      -7.180548e-02       7.180428e-02 
       2.200000e+00      -7.180549e-02      -7.180978e-02 
       2.200000e+00       7.180858e-02      -7.180978e-02 
       2.200000e+00       7.180858e-02       7.180428e-02 
       2.200000e+00      -7.180548e-02       7.180428e-02 
       2.400000e+00      -7.180520e-02      -7.181028e-02 
       2.400000e+00       7.180886e-02      -7.181028e-02 
       2.400000e+00       7.180886e-02       7.180378e-02 
       2.400000e+00      -7.180520e-02       7.180378e-02 
       2.400000e+00      -7.180520e-02      -7.181028e-02 
       2.400000e+00       7.180886e-02      -7.181028e-02 
       2.400000e+00       7.180886e-02       7.180378e-02 
       2.400000e+00      -7.180520e-02       7.180378e-02 
       2.600000e+00      -7.180490e-02      -7.181082e-02 
       2.600000e+00       7.180916e-02      -7.181082e-02 
       2.600000e+00       7.180917e-02       7.180324e-02 
       2.600000e+00      -7.180490e-02       7.180325e-02 
       2.600000e+00      -7.180490e-02      -7.181082e-02 
       2.600000e+00       7.180916e-02      -7.181082e-02 
       2.600000e+00       7.180917e-02       7.180324e-02 
       2.600000e+00      -7.180490e-02       7.180325e-02 
       2.800000e+00      -7.180458e-02      -7.181139e-02 
       2.800000e+00       7.180949e-02      -7.181140e-02 
       2.800000e+00       7.180949e-02       7.180267e-02 
       2.800000e+00      -7.180458e-02       7.180267e-02 
       2.800000e+00      -7.180458e-02      -7.181139e-02 
       2.800000e+00       7.180949e-02      -7.181140e-02 
       2.800000e+00       7.180949e-02       7.180267e-02 
       2.800000e+00      -7.180458e-02       7.180267e-02 
       3.000000e+00      -7.180423e-02      -7.181200e-02 
       3.000000e+00       7.180983e-02      -7.181201e-02 
       3.000000e+00       7.180984e-02       7.180206e-02 
       3.000000e+00      -7.180423e-02       7.180206e-02 
       3.000000e+00      -7.180423e-02      -7.181200e-02 
       3.000000e+00       7.180983e-02      -7.181201e-02 
       3.000000e+00       7.180984e-02       7.180206e-02 
       3.000000e+00      -7.180423e-02       7.180206e-02 
       3.200000e+00      -7.180387e-02      -7.181265e-02 
       3.200000e+00       7.181020e-02      -7.181265e-02 
       3.200000e+00       7.181020e-02       7.180142e-02 
       3.200000e+00      -7.180387e-02       7.180142e-02 
       3.200000e+00      -7.180387e-02      -7.181265e-02 
       3.200000e+00       7.181020e-02      -7.181265e-02 
       3.200000e+00       7.181020e-02       7.180142e-02 
       3.200000e+00      -7.180387e-02       7.180142e-02 
       3.400000e+00      -7.180349e-02      -7.181333e-02 
       3.400000e+00       7.181058e-02      -7.181333e-02 
       3.400000e+00       7.181058e-02       7.180074e-02 
       3.400000e+00      -7.180348e-02       7.180074e-02 
       3.400000e+00      -7.180349e-02      -7.181333e-02 
       3.400000e+00       7.181058e-02      -7.181333e-02 
       3.400000e+00       7.181058e-02       7.180074e-02 
       3.400000e+00      -7.180348e-02       7.180074e-02 
       3.600000e+00      -7.180308e-02      -7.181404e-02 
       3.600000e+00       7.181098e-02      -7.181404e-02 
       3.600000e+00       7.181099e-02       7.180002e-02 
       3.600000e+00      -7.180308e-02       7.180003e-02 
       3.600000e+00      -7.180308e-02      -7.181404e-02 
       3.600000e+00       7.181098e-02      -7.181404e-02 
       3.600000e+00       7.181099e-02       7.180002e-02 
       3.600000e+00      -7.180308e-02       7.180003e-02 
       3.800000e+00      -7.180266e-02      -7.181478e-02 
       3.800000e+00       7.181140e-02      -7.181479e-02 
       3.800000e+00       7.181141e-02       7.179928e-02 
       3.800000e+00      -7.180266e-02       7.179928e-02 
       3.800000e+00      -7.180266e-02      -7.181478e-02 
       3.800000e+00       7.181140e-02      -7.181479e-02 
       3.800000e+00       7.181141e-02       7.179928e-02 
       3.800000e+00      -7.180266e-02       7.179928e-02 
       4.000000e+00      -7.180222e-02      -7.181556e-02 
       4.000000e+00       7.181184e-02      -7.181556e-02 
       4.000000e+00       7.181185e-02       7.179850e-02 
       4.000000e+00      -7.180222e-02       7.179851e-02 
       4.000000e+00      -7.180222e-02      -7.181556e-02 
       4.000000e+00       7.181184e-02      -7.181556e-02 
       4.000000e+00       7.181185e-02       7.179850e-02 
       4.000000e+00      -7.180222e-02       7.179851e-02 
       4.200000e+00      -7.180177e-02      -7.181637e-02 
[...]
POINT_DATA       800 
VECTORS Displacements float
      -1.30311919e-23      -1.38777878e-17      -1.38777878e-17 
      -5.44283485e-24       2.77555756e-17      -1.38777878e-17 
       1.30311919e-23       1.38777878e-17       1.38777878e-17 
       5.44283485e-24      -2.77555756e-17       1.38777878e-17 
      -7.68273245e-09       1.35948677e-08      -2.42734140e-08 
      -2.72538807e-08       1.35948664e-08      -2.44266062e-08 
       7.59990787e-09       1.37480633e-08      -2.44266104e-08 
       2.71710562e-08       1.37480646e-08      -2.42734182e-08 
      -7.68273245e-09       1.35948677e-08      -2.42734140e-08 
      -2.72538807e-08       1.35948664e-08      -2.44266062e-08 
       7.59990787e-09       1.37480633e-08      -2.44266104e-08 
       2.71710562e-08       1.37480646e-08      -2.42734182e-08 
      -1.52057697e-08       5.41817313e-08      -9.65992575e-08 
      -5.39700745e-08       5.41817261e-08      -9.69056374e-08 
       1.50399758e-08       5.44881246e-08      -9.69056539e-08 
       5.38042805e-08       5.44881298e-08      -9.65992740e-08 
      -1.52057697e-08       5.41817313e-08      -9.65992575e-08 
      -5.39700745e-08       5.41817261e-08      -9.69056374e-08 
       1.50399758e-08       5.44881246e-08      -9.69056539e-08 
       5.38042805e-08       5.44881298e-08      -9.65992740e-08 
      -2.25691101e-08       1.21234192e-07      -2.16006140e-07 
      -8.01485798e-08       1.21234180e-07      -2.16465703e-07 
       2.23202050e-08       1.21693784e-07      -2.16465739e-07 
       7.98996747e-08       1.21693796e-07      -2.16006176e-07 
      -2.25691101e-08       1.21234192e-07      -2.16006140e-07 
      -8.01485798e-08       1.21234180e-07      -2.16465703e-07 
       2.23202050e-08       1.21693784e-07      -2.16465739e-07 
       7.98996747e-08       1.21693796e-07      -2.16006176e-07 
      -2.97727524e-08       2.14225849e-07      -3.81522670e-07 
      -1.05789395e-07       2.14225829e-07      -3.82135412e-07 
       2.94405971e-08       2.14838643e-07      -3.82135476e-07 
       1.05457240e-07       2.14838664e-07      -3.81522733e-07 
      -2.97727524e-08       2.14225849e-07      -3.81522670e-07 
      -1.05789395e-07       2.14225829e-07      -3.82135412e-07 
       2.94405971e-08       2.14838643e-07      -3.82135476e-07 
       1.05457240e-07       2.14838664e-07      -3.81522733e-07 
      -3.68166951e-08       3.32630305e-07      -5.92177457e-07 
      -1.30892519e-07       3.32630275e-07      -5.92943375e-07 
       3.64011534e-08       3.33396302e-07      -5.92943472e-07 
       1.30476978e-07       3.33396333e-07      -5.92177554e-07 
      -3.68166951e-08       3.32630305e-07      -5.92177457e-07 
      -1.30892519e-07       3.32630275e-07      -5.92943375e-07 
       3.64011534e-08       3.33396302e-07      -5.92943472e-07 
       1.30476978e-07       3.33396333e-07      -5.92177554e-07 
      -4.37009366e-08       4.75921160e-07      -8.46999110e-07 
      -1.55457951e-07       4.75921117e-07      -8.47918200e-07 
       4.32018756e-08       4.76840362e-07      -8.47918337e-07 
       1.54958889e-07       4.76840405e-07      -8.46999247e-07 
      -4.37009366e-08       4.75921160e-07      -8.46999110e-07 
      -1.55457951e-07       4.75921117e-07      -8.47918200e-07 
       4.32018756e-08       4.76840362e-07      -8.47918337e-07 
       1.54958889e-07       4.76840405e-07      -8.46999247e-07 
      -5.04254758e-08       6.43572015e-07      -1.14501624e-06 
      -1.79485688e-07       6.43571957e-07      -1.14608850e-06 
       4.98427650e-08       6.44644422e-07      -1.14608868e-06 
       1.78902977e-07       6.44644480e-07      -1.14501642e-06 
      -5.04254758e-08       6.43572015e-07      -1.14501624e-06 
      -1.79485688e-07       6.43571957e-07      -1.14608850e-06 
       4.98427650e-08       6.44644422e-07      -1.14608868e-06 
       1.78902977e-07       6.44644480e-07      -1.14501642e-06 
      -5.69903109e-08       8.35056470e-07      -1.48525745e-06 
      -2.02975729e-07       8.35056395e-07      -1.48648288e-06 
       5.63238229e-08       8.36282084e-07      -1.48648311e-06 
       2.02309241e-07       8.36282158e-07      -1.48525769e-06 
      -5.69903109e-08       8.35056470e-07      -1.48525745e-06 
      -2.02975729e-07       8.35056395e-07      -1.48648288e-06 
       5.63238229e-08       8.36282084e-07      -1.48648311e-06 
       2.02309241e-07       8.36282158e-07      -1.48525769e-06 
      -6.33954405e-08       1.04984813e-06      -1.86675136e-06 
      -2.25928074e-07       1.04984803e-06      -1.86812995e-06 
       6.26450511e-08       1.05122695e-06      -1.86813024e-06 
       2.25177684e-07       1.05122704e-06      -1.86675165e-06 
      -6.33954405e-08       1.04984813e-06      -1.86675136e-06 
      -2.25928074e-07       1.04984803e-06      -1.86812995e-06 
       6.26450511e-08       1.05122695e-06      -1.86813024e-06 
       2.25177684e-07       1.05122704e-06      -1.86675165e-06 
      -6.96408635e-08       1.28742058e-06      -2.28852657e-06 
      -2.48342719e-07       1.28742047e-06      -2.29005832e-06 
       6.88064508e-08       1.28895261e-06      -2.29005867e-06 
       2.47508307e-07       1.28895273e-06      -2.28852692e-06 
      -6.96408633e-08       1.28742058e-06      -2.28852657e-06 
      -2.48342719e-07       1.28742047e-06      -2.29005832e-06 
       6.88064508e-08       1.28895261e-06      -2.29005867e-06 
       2.47508307e-07       1.28895273e-06      -2.28852692e-06 
      -7.57225402e-08       1.54726508e-06      -2.74963903e-06 
      -2.70236175e-07       1.54726495e-06      -2.75130793e-06 
       7.48323510e-08       1.54893430e-06      -2.75130834e-06 
       2.69345986e-07       1.54893444e-06      -2.74963945e-06 
      -7.57225402e-08       1.54726508e-06      -2.74963903e-06 
      -2.70236175e-07       1.54726495e-06      -2.75130793e-06 
       7.48323510e-08       1.54893430e-06      -2.75130834e-06 
       2.69345986e-07       1.54893444e-06      -2.74963945e-06 
      -8.16636385e-08       1.82889428e-06      -3.24920149e-06 
      -2.91651403e-07       1.82889413e-06      -3.25100752e-06 
       8.07173559e-08       1.83070070e-06      -3.25100800e-06 
       2.90705121e-07       1.83070086e-06      -3.24920197e-06 
      -8.16636385e-08       1.82889428e-06      -3.24920149e-06 
      -2.91651403e-07       1.82889413e-06      -3.25100752e-06 
       8.07173559e-08       1.83070070e-06      -3.25100800e-06 
       2.90705121e-07       1.83070086e-06      -3.24920197e-06 
      -8.74641546e-08       2.13183798e-06      -3.78635172e-06 
      -3.12588400e-07       2.13183780e-06      -3.78829489e-06 
       8.64614691e-08       2.13378159e-06      -3.78829545e-06 
       3.11585715e-07       2.13378177e-06      -3.78635228e-06 
      -8.74641546e-08       2.13183798e-06      -3.78635172e-06 
      -3.12588400e-07       2.13183780e-06      -3.78829489e-06 
       8.64614691e-08       2.13378159e-06      -3.78829545e-06 
       3.11585715e-07       2.13378177e-06      -3.78635228e-06 
      -9.31240844e-08       2.45562595e-06      -4.36022754e-06 
      -3.33047162e-07       2.45562575e-06      -4.36230784e-06 
       9.20646941e-08       2.45770676e-06      -4.36230847e-06 
       3.31987772e-07       2.45770696e-06      -4.36022817e-06 
      -9.31240844e-08       2.45562595e-06      -4.36022754e-06 
      -3.33047162e-07       2.45562575e-06      -4.36230784e-06 
       9.20646941e-08       2.45770676e-06      -4.36230847e-06 
       3.31987772e-07       2.45770696e-06      -4.36022817e-06 
      -9.86434259e-08       2.79978797e-06      -4.96996673e-06 
      -3.53027687e-07       2.79978775e-06      -4.97218417e-06 
       9.75270336e-08       2.80200599e-06      -4.97218487e-06 
       3.51911294e-07       2.80200621e-06      -4.96996743e-06 
      -9.86434259e-08       2.79978797e-06      -4.96996673e-06 
      -3.53027687e-07       2.79978775e-06      -4.97218417e-06 
       9.75270336e-08       2.80200599e-06      -4.97218487e-06 
       3.51911294e-07       2.80200621e-06      -4.96996743e-06 
      -1.04022174e-07       3.16385384e-06      -5.61470709e-06 
      -3.72529969e-07       3.16385359e-06      -5.61706166e-06 
       1.02848492e-07       3.16620905e-06      -5.61706245e-06 
       3.71356287e-07       3.16620931e-06      -5.61470788e-06 
      -1.04022174e-07       3.16385384e-06      -5.61470709e-06 
      -3.72529969e-07       3.16385359e-06      -5.61706166e-06 
       1.02848492e-07       3.16620905e-06      -5.61706245e-06 
       3.71356287e-07       3.16620931e-06      -5.61470788e-06 
      -1.09260326e-07       3.54735334e-06      -6.29358642e-06 
      -3.91554005e-07       3.54735306e-06      -6.29607812e-06 
       1.08029073e-07       3.54984574e-06      -6.29607899e-06 
       3.90322752e-07       3.54984602e-06      -6.29358728e-06 
      -1.09260326e-07       3.54735334e-06      -6.29358642e-06 
      -3.91554005e-07       3.54735306e-06      -6.29607812e-06 
       1.08029073e-07       3.54984574e-06      -6.29607899e-06 
       3.90322752e-07       3.54984602e-06      -6.29358728e-06 
      -1.14357878e-07       3.94981623e-06      -7.00574251e-06 
      -4.10099792e-07       3.94981593e-06      -7.00837134e-06 
       1.13068781e-07       3.95244584e-06      -7.00837229e-06 
       4.08810695e-07       3.95244615e-06      -7.00574346e-06 
      -1.14357878e-07       3.94981623e-06      -7.00574251e-06 
      -4.10099792e-07       3.94981593e-06      -7.00837134e-06 
       1.13068781e-07       3.95244584e-06      -7.00837229e-06 
       4.08810695e-07       3.95244615e-06      -7.00574346e-06 
      -1.19314826e-07       4.37077232e-06      -7.75031315e-06 
      -4.28167327e-07       4.37077199e-06      -7.75307912e-06 
       1.17967617e-07       4.37353913e-06      -7.75308016e-06 
       4.26820117e-07       4.37353946e-06      -7.75031419e-06 
      -1.19314826e-07       4.37077232e-06      -7.75031315e-06 
      -4.28167327e-07       4.37077199e-06      -7.75307912e-06 
       1.17967617e-07       4.37353913e-06      -7.75308016e-06 
       4.26820117e-07       4.37353946e-06      -7.75031419e-06 
      -1.24131168e-07       4.80975138e-06      -8.52643616e-06 
      -4.45756607e-07       4.80975102e-06      -8.52933925e-06 
       1.22725584e-07       4.81265538e-06      -8.52934038e-06 
       4.44351024e-07       4.81265574e-06      -8.52643728e-06 
      -1.24131169e-07       4.80975138e-06      -8.52643616e-06 
      -4.45756607e-07       4.80975102e-06      -8.52933925e-06 
       1.22725585e-07       4.81265538e-06      -8.52934038e-06 
       4.44351023e-07       4.81265574e-06      -8.52643728e-06 
      -1.28806281e-07       5.26630058e-06      -9.33327551e-06 
      -4.62887132e-07       5.26630019e-06      -9.33629969e-06 
       1.27362109e-07       5.26932575e-06      -9.33630091e-06 
       4.61442960e-07       5.26932614e-06      -9.33327672e-06 
      -1.28806281e-07       5.26630058e-06      -9.33327551e-06 
      -4.62887132e-07       5.26630019e-06      -9.33629969e-06 
       1.27362109e-07       5.26932575e-06      -9.33630091e-06 
       4.61442960e-07       5.26932614e-06      -9.33327672e-06 
      -1.33359325e-07       5.73998818e-06      -1.01700506e-05 
      -4.79597912e-07       5.73998776e-06      -1.01731959e-05 
       1.31876195e-07       5.74313451e-06      -1.01731972e-05 
       4.78114782e-07       5.74313493e-06      -1.01700519e-05 
      -1.33359325e-07       5.73998818e-06      -1.01700506e-05 
      -4.79597912e-07       5.73998776e-06      -1.01731959e-05 
       1.31876195e-07       5.74313451e-06      -1.01731972e-05 
       4.78114782e-07       5.74313493e-06      -1.01700519e-05 
      -1.37790295e-07       6.23039963e-06      -1.10360063e-05 
      -4.95888943e-07       6.23039918e-06      -1.10392727e-05 
       1.36267848e-07       6.23366712e-06      -1.10392741e-05 
       4.94366496e-07       6.23366756e-06      -1.10360077e-05 
      -1.37790295e-07       6.23039963e-06      -1.10360063e-05 
      -4.95888943e-07       6.23039918e-06      -1.10392727e-05 
       1.36267848e-07       6.23366712e-06      -1.10392741e-05 
       4.94366496e-07       6.23366756e-06      -1.10360077e-05 
      -1.42099188e-07       6.73712037e-06      -1.19303877e-05 
      -5.11760221e-07       6.73711989e-06      -1.19337752e-05 
       1.40537071e-07       6.74050902e-06      -1.19337766e-05 
       5.10198103e-07       6.74050950e-06      -1.19303892e-05 
      -1.42099188e-07       6.73712037e-06      -1.19303877e-05 
      -5.11760221e-07       6.73711989e-06      -1.19337752e-05 
       1.40537071e-07       6.74050902e-06      -1.19337766e-05 
       5.10198103e-07       6.74050950e-06      -1.19303892e-05 
      -1.46285998e-07       7.25973586e-06      -1.28524396e-05 
      -5.27211739e-07       7.25973535e-06      -1.28559482e-05 
       1.44683868e-07       7.26324567e-06      -1.28559497e-05 
       5.25609611e-07       7.26324617e-06      -1.28524412e-05 
      -1.46285998e-07       7.25973586e-06      -1.28524396e-05 
      -5.27211739e-07       7.25973535e-06      -1.28559482e-05 
       1.44683868e-07       7.26324567e-06      -1.28559497e-05 
       5.25609611e-07       7.26324617e-06      -1.28524412e-05 
      -1.50350720e-07       7.79783154e-06      -1.38014071e-05 
      -5.42243495e-07       7.79783101e-06      -1.38050367e-05 
       1.48708247e-07       7.80146252e-06      -1.38050384e-05 
       5.40601022e-07       7.80146305e-06      -1.38014087e-05 
      -1.50350720e-07       7.79783154e-06      -1.38014071e-05 
      -5.42243495e-07       7.79783101e-06      -1.38050367e-05 
       1.48708247e-07       7.80146252e-06      -1.38050384e-05 
       5.40601022e-07       7.80146305e-06      -1.38014087e-05 
      -1.54293351e-07       8.35099287e-06      -1.47765349e-05 
      -5.56855483e-07       8.35099231e-06      -1.47802857e-05 
       1.52610210e-07       8.35474501e-06      -1.47802874e-05 
       5.55172341e-07       8.35474557e-06      -1.47765367e-05 
      -1.54293351e-07       8.35099287e-06      -1.47765349e-05 
      -5.56855483e-07       8.35099231e-06      -1.47802857e-05 
       1.52610210e-07       8.35474501e-06      -1.47802874e-05 
       5.55172341e-07       8.35474557e-06      -1.47765367e-05 
      -1.58113886e-07       8.91880530e-06      -1.57770682e-05 
      -5.71047698e-07       8.91880470e-06      -1.57809400e-05 
       1.56389763e-07       8.92267860e-06      -1.57809419e-05 
       5.69323575e-07       8.92267919e-06      -1.57770701e-05 
      -1.58113886e-07       8.91880530e-06      -1.57770682e-05 
      -5.71047698e-07       8.91880470e-06      -1.57809400e-05 
       1.56389763e-07       8.92267860e-06      -1.57809419e-05 
       5.69323575e-07       8.92267919e-06      -1.57770701e-05 
      -1.61812319e-07       9.50085427e-06      -1.68022518e-05 
      -5.84820136e-07       9.50085365e-06      -1.68062447e-05 
       1.60046909e-07       9.50484873e-06      -1.68062467e-05 
       5.83054725e-07       9.50484935e-06      -1.68022538e-05 
      -1.61812319e-07       9.50085427e-06      -1.68022518e-05 
      -5.84820136e-07       9.50085365e-06      -1.68062447e-05 
       1.60046909e-07       9.50484873e-06      -1.68062467e-05 
       5.83054725e-07       9.50484935e-06      -1.68022538e-05 
      -1.65388649e-07       1.00967252e-05      -1.78513307e-05 
      -5.98172793e-07       1.00967246e-05      -1.78554447e-05 
       1.63581653e-07       1.01008409e-05      -1.78554467e-05 
       5.96365799e-07       1.01008415e-05      -1.78513328e-05 
      -1.65388648e-07       1.00967252e-05      -1.78513307e-05 
      -5.98172793e-07       1.00967246e-05      -1.78554447e-05 
       1.63581654e-07       1.01008409e-05      -1.78554467e-05 
       5.96365799e-07       1.01008415e-05      -1.78513328e-05 
      -1.68845278e-07       1.07060210e-05      -1.89235757e-05 
      -6.11128026e-07       1.07060203e-05      -1.89277947e-05 
       1.67009951e-07       1.07102417e-05      -1.89277968e-05 
       6.09292698e-07       1.07102424e-05      -1.89235778e-05 
      -1.68845278e-07       1.07060210e-05      -1.89235757e-05 
      -6.11128026e-07       1.07060203e-05      -1.89277947e-05 
       1.67009951e-07       1.07102417e-05      -1.89277968e-05 
       6.09292698e-07       1.07102424e-05      -1.89235778e-05 
      -1.72198248e-07       1.13283651e-05      -2.00183126e-05 
      -6.23721792e-07       1.13283644e-05      -2.00226366e-05 
       1.70334238e-07       1.13326909e-05      -2.00226388e-05 
       6.21857781e-07       1.13326916e-05      -2.00183147e-05 
      -1.72198248e-07       1.13283651e-05      -2.00183126e-05 
      -6.23721792e-07       1.13283644e-05      -2.00226366e-05 
       1.70334238e-07       1.13326909e-05      -2.00226388e-05 
       6.21857781e-07       1.13326916e-05      -2.00183147e-05 
      -1.75447552e-07       1.19633987e-05      -2.11348931e-05 
      -6.35954085e-07       1.19633979e-05      -2.11393222e-05 
       1.73554522e-07       1.19678296e-05      -2.11393245e-05 
       6.34061056e-07       1.19678303e-05      -2.11348954e-05 
      -1.75447552e-07       1.19633987e-05      -2.11348931e-05 
      -6.35954085e-07       1.19633979e-05      -2.11393222e-05 
       1.73554522e-07       1.19678296e-05      -2.11393245e-05 
       6.34061056e-07       1.19678303e-05      -2.11348954e-05 
      -1.78593185e-07       1.26107626e-05      -2.22726692e-05 
      -6.47824904e-07       1.26107619e-05      -2.22772032e-05 
       1.76670806e-07       1.26152986e-05      -2.22772056e-05 
       6.45902524e-07       1.26152994e-05      -2.22726715e-05 
      -1.78593185e-07       1.26107626e-05      -2.22726692e-05 
      -6.47824904e-07       1.26107619e-05      -2.22772032e-05 
       1.76670806e-07       1.26152986e-05      -2.22772056e-05 
       6.45902524e-07       1.26152994e-05      -2.22726715e-05 
      -1.81635143e-07       1.32700980e-05      -2.34309925e-05 
      -6.59334241e-07       1.32700972e-05      -2.34356316e-05 
       1.79683095e-07       1.32747390e-05      -2.34356340e-05 
       6.57382193e-07       1.32747398e-05      -2.34309949e-05 
      -1.81635143e-07       1.32700980e-05      -2.34309925e-05 
      -6.59334241e-07       1.32700972e-05      -2.34356316e-05 
       1.79683095e-07       1.32747390e-05      -2.34356340e-05 
       6.57382193e-07       1.32747398e-05      -2.34309949e-05 
      -1.84573421e-07       1.39410456e-05      -2.46092148e-05 
      -6.70482094e-07       1.39410448e-05      -2.46139589e-05 
       1.82591394e-07       1.39457918e-05      -2.46139614e-05 
       6.68500067e-07       1.39457926e-05      -2.46092173e-05 
      -1.84573421e-07       1.39410456e-05      -2.46092148e-05 
      -6.70482094e-07       1.39410448e-05      -2.46139589e-05 
       1.82591394e-07       1.39457918e-05      -2.46139614e-05 
       6.68500067e-07       1.39457926e-05      -2.46092173e-05 
      -1.87408014e-07       1.46232466e-05      -2.58066879e-05 
      -6.81268454e-07       1.46232458e-05      -2.58115370e-05 
       1.85395709e-07       1.46280979e-05      -2.58115396e-05 
       6.79256150e-07       1.46280987e-05      -2.58066905e-05 
      -1.87408014e-07       1.46232466e-05      -2.58066879e-05 
      -6.81268454e-07       1.46232458e-05      -2.58115370e-05 
       1.85395709e-07       1.46280979e-05      -2.58115396e-05 
       6.79256150e-07       1.46280987e-05      -2.58066905e-05 
      -1.90138915e-07       1.53163419e-05      -2.70227635e-05 
      -6.91693318e-07       1.53163410e-05      -2.70277177e-05 
       1.88096046e-07       1.53212982e-05      -2.70277204e-05 
       6.89650449e-07       1.53212991e-05      -2.70227662e-05 
      -1.90138915e-07       1.53163419e-05      -2.70227635e-05 
      -6.91693318e-07       1.53163410e-05      -2.70277177e-05 