# vtk DataFile Version 2.0
./output/onsasExample_BladeCantileverBeamPitch_windVel3DDynamic 3D/onsasExample_BladeCantileverBeamPitch_windVel3DDynamic 3D_0053.vtk
ASCII
DATASET UNSTRUCTURED_GRID

POINTS 800 float
      -1.351663e-23      -7.180703e-02      -7.180703e-02 
      -1.476208e-23       7.180703e-02      -7.180703e-02 
       1.351663e-23       7.180703e-02       7.180703e-02 
       1.476208e-23      -7.180703e-02       7.180703e-02 
       2.000000e-01      -7.180702e-02      -7.180706e-02 
       2.000000e-01       7.180705e-02      -7.180706e-02 
       2.000000e-01       7.180705e-02       7.180701e-02 
       2.000000e-01      -7.180702e-02       7.180701e-02 
       2.000000e-01      -7.180702e-02      -7.180706e-02 
       2.000000e-01       7.180705e-02      -7.180706e-02 
       2.000000e-01       7.180705e-02       7.180701e-02 
       2.000000e-01      -7.180702e-02       7.180701e-02 
       4.000000e-01      -7.180698e-02      -7.180714e-02 
       3.999999e-01       7.180709e-02      -7.180714e-02 
       4.000000e-01       7.180709e-02       7.180693e-02 
       4.000001e-01      -7.180698e-02       7.180693e-02 
       4.000000e-01      -7.180698e-02      -7.180714e-02 
       3.999999e-01       7.180709e-02      -7.180714e-02 
       4.000000e-01       7.180709e-02       7.180693e-02 
       4.000001e-01      -7.180698e-02       7.180693e-02 
       6.000000e-01      -7.180691e-02      -7.180727e-02 
       5.999999e-01       7.180716e-02      -7.180727e-02 
       6.000000e-01       7.180716e-02       7.180680e-02 
       6.000001e-01      -7.180691e-02       7.180680e-02 
       6.000000e-01      -7.180691e-02      -7.180727e-02 
       5.999999e-01       7.180716e-02      -7.180727e-02 
       6.000000e-01       7.180716e-02       7.180680e-02 
       6.000001e-01      -7.180691e-02       7.180680e-02 
       8.000000e-01      -7.180682e-02      -7.180745e-02 
       7.999999e-01       7.180725e-02      -7.180745e-02 
       8.000000e-01       7.180725e-02       7.180661e-02 
       8.000001e-01      -7.180681e-02       7.180661e-02 
       8.000000e-01      -7.180682e-02      -7.180745e-02 
       7.999999e-01       7.180725e-02      -7.180745e-02 
       8.000000e-01       7.180725e-02       7.180661e-02 
       8.000001e-01      -7.180681e-02       7.180661e-02 
       1.000000e+00      -7.180669e-02      -7.180768e-02 
       9.999999e-01       7.180737e-02      -7.180768e-02 
       1.000000e+00       7.180737e-02       7.180638e-02 
       1.000000e+00      -7.180669e-02       7.180638e-02 
       1.000000e+00      -7.180669e-02      -7.180768e-02 
       9.999999e-01       7.180737e-02      -7.180768e-02 
       1.000000e+00       7.180737e-02       7.180638e-02 
       1.000000e+00      -7.180669e-02       7.180638e-02 
       1.200000e+00      -7.180655e-02      -7.180796e-02 
       1.200000e+00       7.180752e-02      -7.180796e-02 
       1.200000e+00       7.180752e-02       7.180610e-02 
       1.200000e+00      -7.180655e-02       7.180610e-02 
       1.200000e+00      -7.180655e-02      -7.180796e-02 
       1.200000e+00       7.180752e-02      -7.180796e-02 
       1.200000e+00       7.180752e-02       7.180610e-02 
       1.200000e+00      -7.180655e-02       7.180610e-02 
       1.400000e+00      -7.180638e-02      -7.180829e-02 
       1.400000e+00       7.180769e-02      -7.180829e-02 
       1.400000e+00       7.180769e-02       7.180578e-02 
       1.400000e+00      -7.180638e-02       7.180578e-02 
       1.400000e+00      -7.180638e-02      -7.180829e-02 
       1.400000e+00       7.180769e-02      -7.180829e-02 
       1.400000e+00       7.180769e-02       7.180578e-02 
       1.400000e+00      -7.180638e-02       7.180578e-02 
       1.600000e+00      -7.180618e-02      -7.180866e-02 
       1.600000e+00       7.180788e-02      -7.180866e-02 
       1.600000e+00       7.180788e-02       7.180540e-02 
       1.600000e+00      -7.180618e-02       7.180540e-02 
       1.600000e+00      -7.180618e-02      -7.180866e-02 
       1.600000e+00       7.180788e-02      -7.180866e-02 
       1.600000e+00       7.180788e-02       7.180540e-02 
       1.600000e+00      -7.180618e-02       7.180540e-02 
       1.800000e+00      -7.180596e-02      -7.180908e-02 
       1.800000e+00       7.180810e-02      -7.180908e-02 
       1.800000e+00       7.180810e-02       7.180498e-02 
       1.800000e+00      -7.180596e-02       7.180498e-02 
       1.800000e+00      -7.180596e-02      -7.180908e-02 
       1.800000e+00       7.180810e-02      -7.180908e-02 
       1.800000e+00       7.180810e-02       7.180498e-02 
       1.800000e+00      -7.180596e-02       7.180498e-02 
       2.000000e+00      -7.180572e-02      -7.180955e-02 
       2.000000e+00       7.180834e-02      -7.180955e-02 
       2.000000e+00       7.180834e-02       7.180452e-02 
       2.000000e+00      -7.180572e-02       7.180452e-02 
       2.000000e+00      -7.180572e-02      -7.180955e-02 
       2.000000e+00       7.180834e-02      -7.180955e-02 
       2.000000e+00       7.180834e-02       7.180452e-02 
       2.000000e+00      -7.180572e-02       7.180452e-02 
       2.200000e+00      -7.180546e-02      -7.181005e-02 
       2.200000e+00       7.180861e-02      -7.181005e-02 
       2.200000e+00       7.180861e-02       7.180401e-02 
       2.200000e+00      -7.180546e-02       7.180401e-02 
       2.200000e+00      -7.180546e-02      -7.181005e-02 
       2.200000e+00       7.180861e-02      -7.181005e-02 
       2.200000e+00       7.180861e-02       7.180401e-02 
       2.200000e+00      -7.180546e-02       7.180401e-02 
       2.400000e+00      -7.180517e-02      -7.181060e-02 
       2.400000e+00       7.180889e-02      -7.181060e-02 
       2.400000e+00       7.180890e-02       7.180346e-02 
       2.400000e+00      -7.180517e-02       7.180346e-02 
       2.400000e+00      -7.180517e-02      -7.181060e-02 
       2.400000e+00       7.180889e-02      -7.181060e-02 
       2.400000e+00       7.180890e-02       7.180346e-02 
       2.400000e+00      -7.180517e-02       7.180346e-02 
       2.600000e+00      -7.180486e-02      -7.181119e-02 
       2.600000e+00       7.180920e-02      -7.181120e-02 
       2.600000e+00       7.180921e-02       7.180287e-02 
       2.600000e+00      -7.180486e-02       7.180287e-02 
       2.600000e+00      -7.180486e-02      -7.181119e-02 
       2.600000e+00       7.180920e-02      -7.181120e-02 
       2.600000e+00       7.180921e-02       7.180287e-02 
       2.600000e+00      -7.180486e-02       7.180287e-02 
       2.800000e+00      -7.180453e-02      -7.181183e-02 
       2.800000e+00       7.180953e-02      -7.181183e-02 
       2.800000e+00       7.180954e-02       7.180224e-02 
       2.800000e+00      -7.180453e-02       7.180224e-02 
       2.800000e+00      -7.180453e-02      -7.181183e-02 
       2.800000e+00       7.180953e-02      -7.181183e-02 
       2.800000e+00       7.180954e-02       7.180224e-02 
       2.800000e+00      -7.180453e-02       7.180224e-02 
       3.000000e+00      -7.180418e-02      -7.181250e-02 
       3.000000e+00       7.180988e-02      -7.181250e-02 
       3.000000e+00       7.180989e-02       7.180157e-02 
       3.000000e+00      -7.180418e-02       7.180157e-02 
       3.000000e+00      -7.180418e-02      -7.181250e-02 
       3.000000e+00       7.180988e-02      -7.181250e-02 
       3.000000e+00       7.180989e-02       7.180157e-02 
       3.000000e+00      -7.180418e-02       7.180157e-02 
       3.200000e+00      -7.180381e-02      -7.181321e-02 
       3.200000e+00       7.181026e-02      -7.181321e-02 
       3.200000e+00       7.181026e-02       7.180086e-02 
       3.200000e+00      -7.180381e-02       7.180086e-02 
       3.200000e+00      -7.180381e-02      -7.181321e-02 
       3.200000e+00       7.181026e-02      -7.181321e-02 
       3.200000e+00       7.181026e-02       7.180086e-02 
       3.200000e+00      -7.180381e-02       7.180086e-02 
       3.400000e+00      -7.180342e-02      -7.181396e-02 
       3.400000e+00       7.181065e-02      -7.181396e-02 
       3.400000e+00       7.181065e-02       7.180011e-02 
       3.400000e+00      -7.180342e-02       7.180011e-02 
       3.400000e+00      -7.180342e-02      -7.181396e-02 
       3.400000e+00       7.181065e-02      -7.181396e-02 
       3.400000e+00       7.181065e-02       7.180011e-02 
       3.400000e+00      -7.180342e-02       7.180011e-02 
       3.600000e+00      -7.180301e-02      -7.181474e-02 
       3.600000e+00       7.181106e-02      -7.181474e-02 
       3.600000e+00       7.181106e-02       7.179932e-02 
       3.600000e+00      -7.180301e-02       7.179932e-02 
       3.600000e+00      -7.180301e-02      -7.181474e-02 
       3.600000e+00       7.181106e-02      -7.181474e-02 
       3.600000e+00       7.181106e-02       7.179932e-02 
       3.600000e+00      -7.180301e-02       7.179932e-02 
       3.800000e+00      -7.180258e-02      -7.181556e-02 
       3.800000e+00       7.181149e-02      -7.181557e-02 
       3.800000e+00       7.181149e-02       7.179850e-02 
       3.800000e+00      -7.180258e-02       7.179850e-02 
       3.800000e+00      -7.180258e-02      -7.181556e-02 
       3.800000e+00       7.181149e-02      -7.181557e-02 
       3.800000e+00       7.181149e-02       7.179850e-02 
       3.800000e+00      -7.180258e-02       7.179850e-02 
       4.000000e+00      -7.180213e-02      -7.181642e-02 
       4.000000e+00       7.181193e-02      -7.181642e-02 
       4.000000e+00       7.181194e-02       7.179764e-02 
       4.000000e+00      -7.180213e-02       7.179765e-02 
       4.000000e+00      -7.180213e-02      -7.181642e-02 
       4.000000e+00       7.181193e-02      -7.181642e-02 
       4.000000e+00       7.181194e-02       7.179764e-02 
       4.000000e+00      -7.180213e-02       7.179765e-02 
       4.200000e+00      -7.180167e-02      -7.181731e-02 
[...]
POINT_DATA       800 
VECTORS Displacements float
      -1.35166260e-23      -1.38777878e-17      -1.38777878e-17 
      -1.47620831e-23       0.00000000e+00      -1.38777878e-17 
       1.35166260e-23       1.38777878e-17       1.38777878e-17 
       1.47620831e-23       0.00000000e+00       1.38777878e-17 
      -9.17263118e-09       1.38273427e-08      -2.65876666e-08 
      -2.90775405e-08       1.38273414e-08      -2.67410560e-08 
       9.09394482e-09       1.39807361e-08      -2.67410610e-08 
       2.89988541e-08       1.39807374e-08      -2.65876716e-08 
      -9.17263118e-09       1.38273427e-08      -2.65876666e-08 
      -2.90775405e-08       1.38273414e-08      -2.67410560e-08 
       9.09394482e-09       1.39807361e-08      -2.67410610e-08 
       2.89988541e-08       1.39807374e-08      -2.65876716e-08 
      -1.81682089e-08       5.51104490e-08      -1.05822832e-07 
      -5.75985496e-08       5.51104436e-08      -1.06129606e-07 
       1.80106678e-08       5.54172381e-08      -1.06129626e-07 
       5.74410085e-08       5.54172435e-08      -1.05822852e-07 
      -1.81682089e-08       5.51104490e-08      -1.05822832e-07 
      -5.75985496e-08       5.51104436e-08      -1.06129606e-07 
       1.80106678e-08       5.54172381e-08      -1.06129626e-07 
       5.74410085e-08       5.54172435e-08      -1.05822852e-07 
      -2.69867315e-08       1.23320850e-07      -2.36683657e-07 
      -8.55630258e-08       1.23320838e-07      -2.37143810e-07 
       2.67501705e-08       1.23781037e-07      -2.37143854e-07 
       8.53264648e-08       1.23781049e-07      -2.36683701e-07 
      -2.69867315e-08       1.23320850e-07      -2.36683657e-07 
      -8.55630258e-08       1.23320838e-07      -2.37143810e-07 
       2.67501705e-08       1.23781037e-07      -2.37143854e-07 
       8.53264648e-08       1.23781049e-07      -2.36683701e-07 
      -3.56281975e-08       2.17930076e-07      -4.18148301e-07 
      -1.12970967e-07       2.17930056e-07      -4.18761829e-07 
       3.53124551e-08       2.18543664e-07      -4.18761906e-07 
       1.12655225e-07       2.18543685e-07      -4.18148377e-07 
      -3.56281975e-08       2.17930076e-07      -4.18148301e-07 
      -1.12970967e-07       2.17930056e-07      -4.18761829e-07 
       3.53124551e-08       2.18543664e-07      -4.18761906e-07 
       1.12655225e-07       2.18543685e-07      -4.18148377e-07 
      -4.40926048e-08       3.38409659e-07      -6.49194923e-07 
      -1.39822372e-07       3.38409627e-07      -6.49961823e-07 
       4.36975225e-08       3.39176649e-07      -6.49961940e-07 
       1.39427290e-07       3.39176681e-07      -6.49195041e-07 
      -4.40926048e-08       3.38409659e-07      -6.49194923e-07 
      -1.39822372e-07       3.38409627e-07      -6.49961823e-07 
       4.36975225e-08       3.39176649e-07      -6.49961940e-07 
       1.39427290e-07       3.39176681e-07      -6.49195041e-07 
      -5.23799526e-08       4.84231130e-07      -9.28801685e-07 
      -1.66117240e-07       4.84231085e-07      -9.29721951e-07 
       5.19053744e-08       4.85151524e-07      -9.29722116e-07 
       1.65642662e-07       4.85151569e-07      -9.28801850e-07 
      -5.23799526e-08       4.84231130e-07      -9.28801685e-07 
      -1.66117240e-07       4.84231085e-07      -9.29721951e-07 
       5.19053744e-08       4.85151524e-07      -9.29722116e-07 
       1.65642662e-07       4.85151569e-07      -9.28801850e-07 
      -6.04902384e-08       6.54866019e-07      -1.25594674e-06 
      -1.91855567e-07       6.54865959e-07      -1.25702037e-06 
       5.99360130e-08       6.55939818e-07      -1.25702059e-06 
       1.91301342e-07       6.55939878e-07      -1.25594697e-06 
      -6.04902384e-08       6.54866019e-07      -1.25594674e-06 
      -1.91855567e-07       6.54865959e-07      -1.25702037e-06 
       5.99360130e-08       6.55939818e-07      -1.25702059e-06 
       1.91301342e-07       6.55939878e-07      -1.25594697e-06 
      -6.84234607e-08       8.49785858e-07      -1.62960826e-06 
      -2.17037353e-07       8.49785781e-07      -1.63083525e-06 
       6.77894396e-08       8.51013065e-07      -1.63083553e-06 
       2.16403332e-07       8.51013141e-07      -1.62960854e-06 
      -6.84234607e-08       8.49785858e-07      -1.62960826e-06 
      -2.17037353e-07       8.49785781e-07      -1.63083525e-06 
       6.77894396e-08       8.51013065e-07      -1.63083553e-06 
       2.16403332e-07       8.51013141e-07      -1.62960854e-06 
      -7.61796184e-08       1.06846218e-06      -2.04876440e-06 
      -2.41662597e-07       1.06846208e-06      -2.05014474e-06 
       7.54656559e-08       1.06984279e-06      -2.05014509e-06 
       2.40948634e-07       1.06984289e-06      -2.04876475e-06 
      -7.61796184e-08       1.06846218e-06      -2.04876440e-06 
      -2.41662597e-07       1.06846208e-06      -2.05014474e-06 
       7.54656559e-08       1.06984279e-06      -2.05014509e-06 
       2.40948634e-07       1.06984289e-06      -2.04876475e-06 
      -8.37587097e-08       1.31036651e-06      -2.51239331e-06 
      -2.65731296e-07       1.31036639e-06      -2.51392701e-06 
       8.29646631e-08       1.31190053e-06      -2.51392744e-06 
       2.64937249e-07       1.31190065e-06      -2.51239374e-06 
      -8.37587097e-08       1.31036651e-06      -2.51239331e-06 
      -2.65731296e-07       1.31036639e-06      -2.51392701e-06 
       8.29646631e-08       1.31190053e-06      -2.51392744e-06 
       2.64937249e-07       1.31190065e-06      -2.51239374e-06 
      -9.11546385e-08       1.57498739e-06      -3.01949793e-06 
      -2.89256790e-07       1.57498725e-06      -3.02116894e-06 
       9.03096944e-08       1.57665878e-06      -3.02116944e-06 
       2.88411846e-07       1.57665892e-06      -3.01949843e-06 
      -9.11546385e-08       1.57498739e-06      -3.01949793e-06 
      -2.89256790e-07       1.57498725e-06      -3.02116894e-06 
       9.03096944e-08       1.57665878e-06      -3.02116944e-06 
       2.88411846e-07       1.57665892e-06      -3.01949843e-06 
      -9.83916060e-08       1.86183369e-06      -3.56913491e-06 
      -3.12283031e-07       1.86183353e-06      -3.57094323e-06 
       9.74953935e-08       1.86364246e-06      -3.57094381e-06 
       3.11386819e-07       1.86364261e-06      -3.56913550e-06 
      -9.83916060e-08       1.86183369e-06      -3.56913491e-06 
      -3.12283031e-07       1.86183353e-06      -3.57094323e-06 
       9.74953935e-08       1.86364246e-06      -3.57094381e-06 
       3.11386819e-07       1.86364261e-06      -3.56913550e-06 
      -1.05469609e-07       2.17043152e-06      -4.16038711e-06 
      -3.34810018e-07       2.17043134e-06      -4.16233273e-06 
       1.04521762e-07       2.17237766e-06      -4.16233340e-06 
       3.33862171e-07       2.17237784e-06      -4.16038778e-06 
      -1.05469609e-07       2.17043152e-06      -4.16038711e-06 
      -3.34810018e-07       2.17043134e-06      -4.16233273e-06 
       1.04521762e-07       2.17237766e-06      -4.16233340e-06 
       3.33862171e-07       2.17237784e-06      -4.16038778e-06 
      -1.12388643e-07       2.50030699e-06      -4.79233736e-06 
      -3.56837745e-07       2.50030678e-06      -4.79442027e-06 
       1.11388807e-07       2.50239050e-06      -4.79442104e-06 
       3.55837909e-07       2.50239071e-06      -4.79233812e-06 
      -1.12388643e-07       2.50030699e-06      -4.79233736e-06 
      -3.56837745e-07       2.50030678e-06      -4.79442027e-06 
       1.11388807e-07       2.50239050e-06      -4.79442104e-06 
       3.55837909e-07       2.50239071e-06      -4.79233812e-06 
      -1.19148705e-07       2.85098619e-06      -5.46406849e-06 
      -3.78366209e-07       2.85098596e-06      -5.46628871e-06 
       1.18096530e-07       2.85320707e-06      -5.46628957e-06 
       3.77314034e-07       2.85320731e-06      -5.46406935e-06 
      -1.19148705e-07       2.85098619e-06      -5.46406849e-06 
      -3.78366209e-07       2.85098596e-06      -5.46628871e-06 
       1.18096530e-07       2.85320707e-06      -5.46628957e-06 
       3.77314034e-07       2.85320731e-06      -5.46406935e-06 
      -1.25749789e-07       3.22199524e-06      -6.17466337e-06 
      -3.99395405e-07       3.22199498e-06      -6.17702089e-06 
       1.24644936e-07       3.22435349e-06      -6.17702184e-06 
       3.98290552e-07       3.22435375e-06      -6.17466432e-06 
      -1.25749789e-07       3.22199524e-06      -6.17466337e-06 
      -3.99395405e-07       3.22199498e-06      -6.17702089e-06 
       1.24644936e-07       3.22435349e-06      -6.17702184e-06 
       3.98290552e-07       3.22435375e-06      -6.17466432e-06 
      -1.32191893e-07       3.61286023e-06      -6.92320482e-06 
      -4.19925330e-07       3.61285994e-06      -6.92569963e-06 
       1.31034029e-07       3.61535586e-06      -6.92570069e-06 
       4.18767466e-07       3.61535615e-06      -6.92320587e-06 
      -1.32191893e-07       3.61286023e-06      -6.92320482e-06 
      -4.19925330e-07       3.61285994e-06      -6.92569963e-06 
       1.31034029e-07       3.61535586e-06      -6.92570069e-06 
       4.18767466e-07       3.61535615e-06      -6.92320587e-06 
      -1.38475011e-07       4.02310727e-06      -7.70877568e-06 
      -4.39955978e-07       4.02310695e-06      -7.71140779e-06 
       1.37263813e-07       4.02574027e-06      -7.71140895e-06 
       4.38744781e-07       4.02574059e-06      -7.70877684e-06 
      -1.38475011e-07       4.02310727e-06      -7.70877568e-06 
      -4.39955978e-07       4.02310695e-06      -7.71140779e-06 
       1.37263813e-07       4.02574027e-06      -7.71140895e-06 
       4.38744781e-07       4.02574059e-06      -7.70877684e-06 
      -1.44599141e-07       4.45226246e-06      -8.53045881e-06 
      -4.59487347e-07       4.45226211e-06      -8.53322821e-06 
       1.43334293e-07       4.45503284e-06      -8.53322948e-06 
       4.58222499e-07       4.45503318e-06      -8.53046007e-06 
      -1.44599141e-07       4.45226246e-06      -8.53045881e-06 
      -4.59487347e-07       4.45226211e-06      -8.53322821e-06 
       1.43334293e-07       4.45503284e-06      -8.53322948e-06 
       4.58222499e-07       4.45503318e-06      -8.53046007e-06 
      -1.50564277e-07       4.89985191e-06      -9.38733703e-06 
      -4.78519433e-07       4.89985153e-06      -9.39024373e-06 
       1.49245469e-07       4.90275966e-06      -9.39024510e-06 
       4.77200626e-07       4.90276004e-06      -9.38733840e-06 
      -1.50564277e-07       4.89985191e-06      -9.38733703e-06 
      -4.78519433e-07       4.89985153e-06      -9.39024373e-06 
       1.49245470e-07       4.90275966e-06      -9.39024510e-06 
       4.77200626e-07       4.90276004e-06      -9.38733840e-06 
      -1.56369061e-07       5.36541881e-06      -1.02785184e-05 
      -4.97070444e-07       5.36541841e-06      -1.02815463e-05 
       1.55016602e-07       5.36844787e-06      -1.02815478e-05 
       4.95717986e-07       5.36844827e-06      -1.02785199e-05 
      -1.56369061e-07       5.36541881e-06      -1.02785184e-05 
      -4.97070444e-07       5.36541841e-06      -1.02815463e-05 
       1.55016602e-07       5.36844787e-06      -1.02815478e-05 
       4.95717986e-07       5.36844827e-06      -1.02785199e-05 
      -1.62033484e-07       5.84852687e-06      -1.12031661e-05 
      -5.15180210e-07       5.84852644e-06      -1.12063152e-05 
       1.60646933e-07       5.85167722e-06      -1.12063168e-05 
       5.13793659e-07       5.85167766e-06      -1.12031677e-05 
      -1.62033484e-07       5.84852687e-06      -1.12031661e-05 
      -5.15180210e-07       5.84852644e-06      -1.12063152e-05 
       1.60646933e-07       5.85167722e-06      -1.12063168e-05 
       5.13793659e-07       5.85167766e-06      -1.12031677e-05 
      -1.67557539e-07       6.34875707e-06      -1.21604694e-05 
      -5.32848722e-07       6.34875661e-06      -1.21637398e-05 
       1.66136470e-07       6.35202872e-06      -1.21637415e-05 
       5.31427652e-07       6.35202918e-06      -1.21604711e-05 
      -1.67557539e-07       6.34875707e-06      -1.21604694e-05 
      -5.32848722e-07       6.34875661e-06      -1.21637398e-05 
       1.66136470e-07       6.35202872e-06      -1.21637415e-05 
       5.31427652e-07       6.35202918e-06      -1.21604711e-05 
      -1.72941224e-07       6.86569038e-06      -1.31496179e-05 
      -5.50075977e-07       6.86568989e-06      -1.31530094e-05 
       1.71485214e-07       6.86908333e-06      -1.31530112e-05 
       5.48619968e-07       6.86908382e-06      -1.31496197e-05 
      -1.72941224e-07       6.86569038e-06      -1.31496179e-05 
      -5.50075977e-07       6.86568989e-06      -1.31530094e-05 
       1.71485214e-07       6.86908333e-06      -1.31530112e-05 
       5.48619968e-07       6.86908382e-06      -1.31496197e-05 
      -1.78184532e-07       7.39890779e-06      -1.41698008e-05 
      -5.66861970e-07       7.39890727e-06      -1.41733136e-05 
       1.76693175e-07       7.40242203e-06      -1.41733155e-05 
       5.65370613e-07       7.40242256e-06      -1.41698028e-05 
      -1.78184532e-07       7.39890779e-06      -1.41698008e-05 
      -5.66861970e-07       7.39890727e-06      -1.41733136e-05 
       1.76693175e-07       7.40242203e-06      -1.41733155e-05 
       5.65370613e-07       7.40242256e-06      -1.41698028e-05 
      -1.83287458e-07       7.94799028e-06      -1.52202078e-05 
      -5.83206694e-07       7.94798972e-06      -1.52238417e-05 
       1.81760355e-07       7.95162582e-06      -1.52238438e-05 
       5.81679592e-07       7.95162637e-06      -1.52202098e-05 
      -1.83287458e-07       7.94799028e-06      -1.52202078e-05 
      -5.83206694e-07       7.94798972e-06      -1.52238417e-05 
       1.81760355e-07       7.95162582e-06      -1.52238438e-05 
       5.81679592e-07       7.95162637e-06      -1.52202098e-05 
      -1.88249997e-07       8.51251882e-06      -1.63000281e-05 
      -5.99110145e-07       8.51251823e-06      -1.63037833e-05 
       1.86686762e-07       8.51627566e-06      -1.63037854e-05 
       5.97546911e-07       8.51627624e-06      -1.63000302e-05 
      -1.88249997e-07       8.51251882e-06      -1.63000281e-05 
      -5.99110145e-07       8.51251823e-06      -1.63037833e-05 
       1.86686762e-07       8.51627566e-06      -1.63037854e-05 
       5.97546911e-07       8.51627624e-06      -1.63000302e-05 
      -1.93072142e-07       9.09207440e-06      -1.74084512e-05 
      -6.14572317e-07       9.09207378e-06      -1.74123276e-05 
       1.91472401e-07       9.09595253e-06      -1.74123299e-05 
       6.12972576e-07       9.09595315e-06      -1.74084535e-05 
      -1.93072142e-07       9.09207440e-06      -1.74084512e-05 
      -6.14572317e-07       9.09207378e-06      -1.74123276e-05 
       1.91472401e-07       9.09595253e-06      -1.74123299e-05 
       6.12972576e-07       9.09595315e-06      -1.74084535e-05 
      -1.97753891e-07       9.68623799e-06      -1.85446666e-05 
      -6.29593206e-07       9.68623734e-06      -1.85486642e-05 
       1.96117274e-07       9.69023742e-06      -1.85486666e-05 
       6.27956590e-07       9.69023807e-06      -1.85446690e-05 
      -1.97753891e-07       9.68623799e-06      -1.85446666e-05 
      -6.29593206e-07       9.68623734e-06      -1.85486642e-05 
       1.96117274e-07       9.69023742e-06      -1.85486666e-05 
       6.27956590e-07       9.69023807e-06      -1.85446690e-05 
      -2.02295235e-07       1.02945906e-05      -1.97078637e-05 
      -6.44172806e-07       1.02945899e-05      -1.97119825e-05 
       2.00621390e-07       1.02987113e-05      -1.97119849e-05 
       6.42498961e-07       1.02987120e-05      -1.97078661e-05 
      -2.02295235e-07       1.02945906e-05      -1.97078637e-05 
      -6.44172805e-07       1.02945899e-05      -1.97119825e-05 
       2.00621390e-07       1.02987113e-05      -1.97119849e-05 
       6.42498960e-07       1.02987120e-05      -1.97078661e-05 
      -2.06698546e-07       1.09167303e-05      -2.08972575e-05 
      -6.58333169e-07       1.09167296e-05      -2.09014814e-05 
       2.05000906e-07       1.09209562e-05      -2.09014840e-05 
       6.56635530e-07       1.09209569e-05      -2.08972601e-05 
      -2.06698546e-07       1.09167303e-05      -2.08972575e-05 
      -6.58333169e-07       1.09167296e-05      -2.09014814e-05 
       2.05000906e-07       1.09209562e-05      -2.09014840e-05 
       6.56635530e-07       1.09209569e-05      -2.08972601e-05 
      -2.10980482e-07       1.15522760e-05      -2.21121191e-05 
      -6.72110856e-07       1.15522752e-05      -2.21164481e-05 
       2.09258626e-07       1.15566071e-05      -2.21164508e-05 
       6.70389000e-07       1.15566078e-05      -2.21121218e-05 
      -2.10980482e-07       1.15522760e-05      -2.21121191e-05 
      -6.72110856e-07       1.15522752e-05      -2.21164481e-05 
       2.09258626e-07       1.15566071e-05      -2.21164508e-05 
       6.70389000e-07       1.15566078e-05      -2.21121218e-05 
      -2.15141035e-07       1.22008637e-05      -2.33517459e-05 
      -6.85505858e-07       1.22008629e-05      -2.33561800e-05 
       2.13394556e-07       1.22052999e-05      -2.33561828e-05 
       6.83759380e-07       1.22053007e-05      -2.33517487e-05 
      -2.15141035e-07       1.22008637e-05      -2.33517459e-05 
      -6.85505858e-07       1.22008629e-05      -2.33561800e-05 
       2.13394556e-07       1.22052999e-05      -2.33561828e-05 
       6.83759380e-07       1.22053007e-05      -2.33517487e-05 
      -2.19180202e-07       1.28621295e-05      -2.46154353e-05 
      -6.98518172e-07       1.28621287e-05      -2.46199745e-05 
       2.17408701e-07       1.28666710e-05      -2.46199775e-05 
       6.96746670e-07       1.28666718e-05      -2.46154383e-05 
      -2.19180202e-07       1.28621295e-05      -2.46154353e-05 
      -6.98518172e-07       1.28621287e-05      -2.46199745e-05 
       2.17408701e-07       1.28666710e-05      -2.46199775e-05 
       6.96746670e-07       1.28666718e-05      -2.46154383e-05 
      -2.23097977e-07       1.35357096e-05      -2.59024850e-05 
      -7.11147791e-07       1.35357088e-05      -2.59071293e-05 
       2.21301066e-07       1.35403562e-05      -2.59071323e-05 
       7.09350880e-07       1.35403571e-05      -2.59024880e-05 
      -2.23097977e-07       1.35357096e-05      -2.59024850e-05 
      -7.11147791e-07       1.35357088e-05      -2.59071293e-05 
       2.21301066e-07       1.35403562e-05      -2.59071323e-05 
       7.09350880e-07       1.35403571e-05      -2.59024880e-05 
      -2.26894352e-07       1.42212400e-05      -2.72121922e-05 
      -7.23394709e-07       1.42212392e-05      -2.72169416e-05 
       2.25071658e-07       1.42259919e-05      -2.72169447e-05 
       7.21572015e-07       1.42259927e-05      -2.72121953e-05 
      -2.26894352e-07       1.42212400e-05      -2.72121922e-05 
      -7.23394709e-07       1.42212392e-05      -2.72169416e-05 
       2.25071658e-07       1.42259919e-05      -2.72169447e-05 
       7.21572015e-07       1.42259927e-05      -2.72121953e-05 
      -2.30569323e-07       1.49183569e-05      -2.85438544e-05 
      -7.35258920e-07       1.49183560e-05      -2.85487090e-05 
       2.28720483e-07       1.49232139e-05      -2.85487122e-05 
       7.33410081e-07       1.49232148e-05      -2.85438577e-05 
      -2.30569323e-07       1.49183569e-05      -2.85438544e-05 
      -7.35258920e-07       1.49183560e-05      -2.85487090e-05 
       2.28720483e-07       1.49232139e-05      -2.85487122e-05 
       7.33410081e-07       1.49232148e-05      -2.85438577e-05 
      -2.34122883e-07       1.56266964e-05      -2.98967692e-05 
      -7.46740419e-07       1.56266954e-05      -2.99017289e-05 
       2.32247547e-07       1.56316586e-05      -2.99017322e-05 
       7.44865083e-07       1.56316595e-05      -2.98967726e-05 
      -2.34122883e-07       1.56266964e-05      -2.98967692e-05 
      -7.46740419e-07       1.56266954e-05      -2.99017289e-05 