# vtk DataFile Version 2.0
./output/onsasExample_BladeCantileverBeamPitch_windVel3DDynamic 3D/onsasExample_BladeCantileverBeamPitch_windVel3DDynamic 3D_0306.vtk
ASCII
DATASET UNSTRUCTURED_GRID

POINTS 800 float
      -2.810825e-23      -7.180703e-02      -7.180703e-02 
      -1.946437e-23       7.180703e-02      -7.180703e-02 
       2.810825e-23       7.180703e-02       7.180703e-02 
       1.946437e-23      -7.180703e-02       7.180703e-02 
       2.000000e-01      -7.180702e-02      -7.180706e-02 
       2.000000e-01       7.180705e-02      -7.180706e-02 
       2.000000e-01       7.180705e-02       7.180700e-02 
       2.000000e-01      -7.180702e-02       7.180700e-02 
       2.000000e-01      -7.180702e-02      -7.180706e-02 
       2.000000e-01       7.180705e-02      -7.180706e-02 
       2.000000e-01       7.180705e-02       7.180700e-02 
       2.000000e-01      -7.180702e-02       7.180700e-02 
       4.000000e-01      -7.180698e-02      -7.180715e-02 
       3.999999e-01       7.180709e-02      -7.180715e-02 
       4.000000e-01       7.180709e-02       7.180692e-02 
       4.000001e-01      -7.180698e-02       7.180692e-02 
       4.000000e-01      -7.180698e-02      -7.180715e-02 
       3.999999e-01       7.180709e-02      -7.180715e-02 
       4.000000e-01       7.180709e-02       7.180692e-02 
       4.000001e-01      -7.180698e-02       7.180692e-02 
       6.000000e-01      -7.180691e-02      -7.180728e-02 
       5.999999e-01       7.180716e-02      -7.180728e-02 
       6.000000e-01       7.180716e-02       7.180678e-02 
       6.000001e-01      -7.180691e-02       7.180678e-02 
       6.000000e-01      -7.180691e-02      -7.180728e-02 
       5.999999e-01       7.180716e-02      -7.180728e-02 
       6.000000e-01       7.180716e-02       7.180678e-02 
       6.000001e-01      -7.180691e-02       7.180678e-02 
       8.000000e-01      -7.180682e-02      -7.180748e-02 
       7.999999e-01       7.180725e-02      -7.180748e-02 
       8.000000e-01       7.180725e-02       7.180659e-02 
       8.000001e-01      -7.180681e-02       7.180659e-02 
       8.000000e-01      -7.180682e-02      -7.180748e-02 
       7.999999e-01       7.180725e-02      -7.180748e-02 
       8.000000e-01       7.180725e-02       7.180659e-02 
       8.000001e-01      -7.180681e-02       7.180659e-02 
       1.000000e+00      -7.180670e-02      -7.180772e-02 
       9.999999e-01       7.180737e-02      -7.180772e-02 
       1.000000e+00       7.180737e-02       7.180634e-02 
       1.000000e+00      -7.180669e-02       7.180635e-02 
       1.000000e+00      -7.180670e-02      -7.180772e-02 
       9.999999e-01       7.180737e-02      -7.180772e-02 
       1.000000e+00       7.180737e-02       7.180634e-02 
       1.000000e+00      -7.180669e-02       7.180635e-02 
       1.200000e+00      -7.180655e-02      -7.180802e-02 
       1.200000e+00       7.180752e-02      -7.180802e-02 
       1.200000e+00       7.180752e-02       7.180605e-02 
       1.200000e+00      -7.180655e-02       7.180605e-02 
       1.200000e+00      -7.180655e-02      -7.180802e-02 
       1.200000e+00       7.180752e-02      -7.180802e-02 
       1.200000e+00       7.180752e-02       7.180605e-02 
       1.200000e+00      -7.180655e-02       7.180605e-02 
       1.400000e+00      -7.180638e-02      -7.180836e-02 
       1.400000e+00       7.180769e-02      -7.180836e-02 
       1.400000e+00       7.180769e-02       7.180570e-02 
       1.400000e+00      -7.180638e-02       7.180570e-02 
       1.400000e+00      -7.180638e-02      -7.180836e-02 
       1.400000e+00       7.180769e-02      -7.180836e-02 
       1.400000e+00       7.180769e-02       7.180570e-02 
       1.400000e+00      -7.180638e-02       7.180570e-02 
       1.600000e+00      -7.180619e-02      -7.180876e-02 
       1.600000e+00       7.180788e-02      -7.180876e-02 
       1.600000e+00       7.180788e-02       7.180530e-02 
       1.600000e+00      -7.180618e-02       7.180531e-02 
       1.600000e+00      -7.180619e-02      -7.180876e-02 
       1.600000e+00       7.180788e-02      -7.180876e-02 
       1.600000e+00       7.180788e-02       7.180530e-02 
       1.600000e+00      -7.180618e-02       7.180531e-02 
       1.800000e+00      -7.180597e-02      -7.180920e-02 
       1.800000e+00       7.180810e-02      -7.180921e-02 
       1.800000e+00       7.180810e-02       7.180486e-02 
       1.800000e+00      -7.180597e-02       7.180486e-02 
       1.800000e+00      -7.180597e-02      -7.180920e-02 
       1.800000e+00       7.180810e-02      -7.180921e-02 
       1.800000e+00       7.180810e-02       7.180486e-02 
       1.800000e+00      -7.180597e-02       7.180486e-02 
       2.000000e+00      -7.180573e-02      -7.180970e-02 
       2.000000e+00       7.180834e-02      -7.180970e-02 
       2.000000e+00       7.180834e-02       7.180437e-02 
       2.000000e+00      -7.180572e-02       7.180437e-02 
       2.000000e+00      -7.180573e-02      -7.180970e-02 
       2.000000e+00       7.180834e-02      -7.180970e-02 
       2.000000e+00       7.180834e-02       7.180437e-02 
       2.000000e+00      -7.180572e-02       7.180437e-02 
       2.200000e+00      -7.180546e-02      -7.181024e-02 
       2.200000e+00       7.180860e-02      -7.181024e-02 
       2.200000e+00       7.180861e-02       7.180383e-02 
       2.200000e+00      -7.180546e-02       7.180383e-02 
       2.200000e+00      -7.180546e-02      -7.181024e-02 
       2.200000e+00       7.180860e-02      -7.181024e-02 
       2.200000e+00       7.180861e-02       7.180383e-02 
       2.200000e+00      -7.180546e-02       7.180383e-02 
       2.400000e+00      -7.180518e-02      -7.181082e-02 
       2.400000e+00       7.180889e-02      -7.181082e-02 
       2.400000e+00       7.180889e-02       7.180325e-02 
       2.400000e+00      -7.180517e-02       7.180325e-02 
       2.400000e+00      -7.180518e-02      -7.181082e-02 
       2.400000e+00       7.180889e-02      -7.181082e-02 
       2.400000e+00       7.180889e-02       7.180325e-02 
       2.400000e+00      -7.180517e-02       7.180325e-02 
       2.600000e+00      -7.180487e-02      -7.181145e-02 
       2.600000e+00       7.180920e-02      -7.181145e-02 
       2.600000e+00       7.180920e-02       7.180262e-02 
       2.600000e+00      -7.180487e-02       7.180262e-02 
       2.600000e+00      -7.180487e-02      -7.181145e-02 
       2.600000e+00       7.180920e-02      -7.181145e-02 
       2.600000e+00       7.180920e-02       7.180262e-02 
       2.600000e+00      -7.180487e-02       7.180262e-02 
       2.800000e+00      -7.180454e-02      -7.181212e-02 
       2.800000e+00       7.180953e-02      -7.181212e-02 
       2.800000e+00       7.180953e-02       7.180195e-02 
       2.800000e+00      -7.180454e-02       7.180195e-02 
       2.800000e+00      -7.180454e-02      -7.181212e-02 
       2.800000e+00       7.180953e-02      -7.181212e-02 
       2.800000e+00       7.180953e-02       7.180195e-02 
       2.800000e+00      -7.180454e-02       7.180195e-02 
       3.000000e+00      -7.180419e-02      -7.181283e-02 
       3.000000e+00       7.180988e-02      -7.181283e-02 
       3.000000e+00       7.180988e-02       7.180123e-02 
       3.000000e+00      -7.180419e-02       7.180123e-02 
       3.000000e+00      -7.180419e-02      -7.181283e-02 
       3.000000e+00       7.180988e-02      -7.181283e-02 
       3.000000e+00       7.180988e-02       7.180123e-02 
       3.000000e+00      -7.180419e-02       7.180123e-02 
       3.200000e+00      -7.180382e-02      -7.181359e-02 
       3.200000e+00       7.181025e-02      -7.181359e-02 
       3.200000e+00       7.181025e-02       7.180048e-02 
       3.200000e+00      -7.180382e-02       7.180048e-02 
       3.200000e+00      -7.180382e-02      -7.181359e-02 
       3.200000e+00       7.181025e-02      -7.181359e-02 
       3.200000e+00       7.181025e-02       7.180048e-02 
       3.200000e+00      -7.180382e-02       7.180048e-02 
       3.400000e+00      -7.180343e-02      -7.181438e-02 
       3.400000e+00       7.181064e-02      -7.181439e-02 
       3.400000e+00       7.181064e-02       7.179968e-02 
       3.400000e+00      -7.180343e-02       7.179968e-02 
       3.400000e+00      -7.180343e-02      -7.181438e-02 
       3.400000e+00       7.181064e-02      -7.181439e-02 
       3.400000e+00       7.181064e-02       7.179968e-02 
       3.400000e+00      -7.180343e-02       7.179968e-02 
       3.600000e+00      -7.180302e-02      -7.181522e-02 
       3.600000e+00       7.181105e-02      -7.181522e-02 
       3.600000e+00       7.181105e-02       7.179884e-02 
       3.600000e+00      -7.180302e-02       7.179885e-02 
       3.600000e+00      -7.180302e-02      -7.181522e-02 
       3.600000e+00       7.181105e-02      -7.181522e-02 
       3.600000e+00       7.181105e-02       7.179884e-02 
       3.600000e+00      -7.180302e-02       7.179885e-02 
       3.800000e+00      -7.180259e-02      -7.181609e-02 
       3.800000e+00       7.181148e-02      -7.181610e-02 
       3.800000e+00       7.181148e-02       7.179797e-02 
       3.800000e+00      -7.180259e-02       7.179797e-02 
       3.800000e+00      -7.180259e-02      -7.181609e-02 
       3.800000e+00       7.181148e-02      -7.181610e-02 
       3.800000e+00       7.181148e-02       7.179797e-02 
       3.800000e+00      -7.180259e-02       7.179797e-02 
       4.000000e+00      -7.180214e-02      -7.181701e-02 
       4.000000e+00       7.181192e-02      -7.181701e-02 
       4.000000e+00       7.181193e-02       7.179706e-02 
       4.000000e+00      -7.180214e-02       7.179706e-02 
       4.000000e+00      -7.180214e-02      -7.181701e-02 
       4.000000e+00       7.181192e-02      -7.181701e-02 
       4.000000e+00       7.181193e-02       7.179706e-02 
       4.000000e+00      -7.180214e-02       7.179706e-02 
       4.200000e+00      -7.180168e-02      -7.181795e-02 
[...]
POINT_DATA       800 
VECTORS Displacements float
      -2.81082462e-23      -2.77555756e-17      -1.38777878e-17 
      -1.94643720e-23       1.38777878e-17      -1.38777878e-17 
       2.81082462e-23       2.77555756e-17       1.38777878e-17 
       1.94643720e-23      -1.38777878e-17       1.38777878e-17 
      -1.03093626e-08       1.37997605e-08      -2.81453310e-08 
      -3.01730961e-08       1.37997591e-08      -2.82964310e-08 
       1.02302549e-08       1.39508648e-08      -2.82964367e-08 
       3.00939884e-08       1.39508661e-08      -2.81453366e-08 
      -1.03093626e-08       1.37997605e-08      -2.81453310e-08 
      -3.01730961e-08       1.37997591e-08      -2.82964310e-08 
       1.02302549e-08       1.39508648e-08      -2.82964367e-08 
       3.00939884e-08       1.39508661e-08      -2.81453366e-08 
      -2.04308919e-08       5.49982758e-08      -1.12031615e-07 
      -5.97793602e-08       5.49982704e-08      -1.12333809e-07 
       2.02724922e-08       5.53004870e-08      -1.12333832e-07 
       5.96209606e-08       5.53004924e-08      -1.12031637e-07 
      -2.04308919e-08       5.49982758e-08      -1.12031615e-07 
      -5.97793602e-08       5.49982704e-08      -1.12333809e-07 
       2.02724922e-08       5.53004870e-08      -1.12333832e-07 
       5.96209606e-08       5.53004924e-08      -1.12031637e-07 
      -3.03645863e-08       1.23067744e-07      -2.50607632e-07 
      -8.88187909e-08       1.23067732e-07      -2.51060916e-07 
       3.01267137e-08       1.23521065e-07      -2.51060965e-07 
       8.85809183e-08       1.23521077e-07      -2.50607681e-07 
      -3.03645863e-08       1.23067744e-07      -2.50607632e-07 
      -8.88187909e-08       1.23067732e-07      -2.51060916e-07 
       3.01267137e-08       1.23521065e-07      -2.51060965e-07 
       8.85809183e-08       1.23521077e-07      -2.50607681e-07 
      -4.01104439e-08       2.17480365e-07      -4.42822163e-07 
      -1.17291386e-07       2.17480344e-07      -4.43426532e-07 
       3.97929208e-08       2.18084798e-07      -4.43426618e-07 
       1.16973863e-07       2.18084818e-07      -4.42822249e-07 
      -4.01104439e-08       2.17480365e-07      -4.42822163e-07 
      -1.17291386e-07       2.17480344e-07      -4.43426532e-07 
       3.97929208e-08       2.18084798e-07      -4.43426618e-07 
       1.16973863e-07       2.18084818e-07      -4.42822249e-07 
      -4.96684629e-08       3.37708335e-07      -6.87623989e-07 
      -1.45197144e-07       3.37708304e-07      -6.88379439e-07 
       4.92711159e-08       3.38463883e-07      -6.88379571e-07 
       1.44799797e-07       3.38463914e-07      -6.87624121e-07 
      -4.96684629e-08       3.37708335e-07      -6.87623989e-07 
      -1.45197144e-07       3.37708304e-07      -6.88379439e-07 
       4.92711159e-08       3.38463883e-07      -6.88379571e-07 
       1.44799797e-07       3.38463914e-07      -6.87624121e-07 
      -5.90386418e-08       4.83223855e-07      -9.83961891e-07 
      -1.72536063e-07       4.83223810e-07      -9.84868417e-07 
       5.85613003e-08       4.84130518e-07      -9.84868603e-07 
       1.72058722e-07       4.84130563e-07      -9.83962077e-07 
      -5.90386418e-08       4.83223855e-07      -9.83961891e-07 
      -1.72536063e-07       4.83223810e-07      -9.84868417e-07 
       5.85613003e-08       4.84130518e-07      -9.84868603e-07 
       1.72058722e-07       4.84130563e-07      -9.83962077e-07 
      -6.82209789e-08       6.53499122e-07      -1.33078465e-06 
      -1.99308142e-07       6.53499062e-07      -1.33184225e-06 
       6.76634755e-08       6.54556904e-07      -1.33184250e-06 
       1.98750639e-07       6.54556963e-07      -1.33078490e-06 
      -6.82209789e-08       6.53499122e-07      -1.33078465e-06 
      -1.99308142e-07       6.53499062e-07      -1.33184225e-06 
       6.76634755e-08       6.54556904e-07      -1.33184250e-06 
       1.98750639e-07       6.54556963e-07      -1.33078490e-06 
      -7.72154720e-08       8.48006334e-07      -1.72704104e-06 
      -2.25513378e-07       8.48006258e-07      -1.72824971e-06 
       7.65776438e-08       8.49215236e-07      -1.72825003e-06 
       2.24875550e-07       8.49215313e-07      -1.72704136e-06 
      -7.72154720e-08       8.48006334e-07      -1.72704104e-06 
      -2.25513378e-07       8.48006258e-07      -1.72824971e-06 
       7.65776438e-08       8.49215236e-07      -1.72825003e-06 
       2.24875550e-07       8.49215313e-07      -1.72704136e-06 
      -8.60221196e-08       1.06621769e-06      -2.17167986e-06 
      -2.51151770e-07       1.06621760e-06      -2.17303959e-06 
       8.53038065e-08       1.06757772e-06      -2.17303998e-06 
       2.50433457e-07       1.06757781e-06      -2.17168025e-06 
      -8.60221196e-08       1.06621769e-06      -2.17167986e-06 
      -2.51151770e-07       1.06621760e-06      -2.17303959e-06 
       8.53038065e-08       1.06757772e-06      -2.17303998e-06 
       2.50433457e-07       1.06757781e-06      -2.17168025e-06 
      -9.46409202e-08       1.30760539e-06      -2.66364987e-06 
      -2.76223317e-07       1.30760528e-06      -2.66516066e-06 
       9.38419658e-08       1.30911654e-06      -2.66516114e-06 
       2.75424363e-07       1.30911665e-06      -2.66365035e-06 
      -9.46409200e-08       1.30760539e-06      -2.66364987e-06 
      -2.76223317e-07       1.30760528e-06      -2.66516066e-06 
       9.38419658e-08       1.30911654e-06      -2.66516114e-06 
       2.75424363e-07       1.30911665e-06      -2.66365035e-06 
      -1.03065560e-07       1.57165897e-06      -3.20192530e-06 
      -3.00741692e-07       1.57165883e-06      -3.20357120e-06 
       1.02215695e-07       1.57330527e-06      -3.20357176e-06 
       2.99891826e-07       1.57330541e-06      -3.20192587e-06 
      -1.03065560e-07       1.57165897e-06      -3.20192530e-06 
      -3.00741692e-07       1.57165883e-06      -3.20357120e-06 
       1.02215695e-07       1.57330527e-06      -3.20357176e-06 
       2.99891826e-07       1.57330541e-06      -3.20192587e-06 
      -1.11319323e-07       1.85788850e-06      -3.78553222e-06 
      -3.24749527e-07       1.85788835e-06      -3.78731320e-06 
       1.10418137e-07       1.85966998e-06      -3.78731386e-06 
       3.23848341e-07       1.85967014e-06      -3.78553288e-06 
      -1.11319323e-07       1.85788850e-06      -3.78553222e-06 
      -3.24749527e-07       1.85788835e-06      -3.78731320e-06 
       1.10418137e-07       1.85966998e-06      -3.78731386e-06 
       3.23848341e-07       1.85967014e-06      -3.78553288e-06 
      -1.19402206e-07       2.16582099e-06      -4.41352108e-06 
      -3.48246818e-07       2.16582080e-06      -4.41543716e-06 
       1.18449296e-07       2.16773762e-06      -4.41543792e-06 
       3.47293908e-07       2.16773781e-06      -4.41352184e-06 
      -1.19402206e-07       2.16582099e-06      -4.41352108e-06 
      -3.48246818e-07       2.16582080e-06      -4.41543716e-06 
       1.18449296e-07       2.16773762e-06      -4.41543792e-06 
       3.47293908e-07       2.16773781e-06      -4.41352184e-06 
      -1.27314205e-07       2.49498339e-06      -5.08494238e-06 
      -3.71233561e-07       2.49498318e-06      -5.08699354e-06 
       1.26309177e-07       2.49703519e-06      -5.08699440e-06 
       3.70228534e-07       2.49703540e-06      -5.08494324e-06 
      -1.27314205e-07       2.49498339e-06      -5.08494238e-06 
      -3.71233561e-07       2.49498318e-06      -5.08699354e-06 
       1.26309177e-07       2.49703519e-06      -5.08699440e-06 
       3.70228534e-07       2.49703540e-06      -5.08494324e-06 
      -1.35055314e-07       2.84490268e-06      -5.79884657e-06 
      -3.93709752e-07       2.84490245e-06      -5.80103282e-06 
       1.33997784e-07       2.84708965e-06      -5.80103379e-06 
       3.92652223e-07       2.84708989e-06      -5.79884754e-06 
      -1.35055314e-07       2.84490268e-06      -5.79884657e-06 
      -3.93709752e-07       2.84490245e-06      -5.80103282e-06 
       1.33997784e-07       2.84708965e-06      -5.80103379e-06 
       3.92652223e-07       2.84708989e-06      -5.79884754e-06 
      -1.42625529e-07       3.21510586e-06      -6.55428414e-06 
      -4.15675387e-07       3.21510560e-06      -6.55660548e-06 
       1.41515121e-07       3.21742799e-06      -6.55660656e-06 
       4.14564978e-07       3.21742825e-06      -6.55428522e-06 
      -1.42625529e-07       3.21510586e-06      -6.55428414e-06 
      -4.15675387e-07       3.21510560e-06      -6.55660548e-06 
       1.41515121e-07       3.21742799e-06      -6.55660656e-06 
       4.14564978e-07       3.21742825e-06      -6.55428522e-06 
      -1.50024847e-07       3.60511988e-06      -7.35030555e-06 
      -4.37130458e-07       3.60511959e-06      -7.35276198e-06 
       1.48861193e-07       3.60757719e-06      -7.35276317e-06 
       4.35966805e-07       3.60757747e-06      -7.35030675e-06 
      -1.50024847e-07       3.60511988e-06      -7.35030555e-06 
      -4.37130458e-07       3.60511959e-06      -7.35276198e-06 
       1.48861193e-07       3.60757719e-06      -7.35276317e-06 
       4.35966805e-07       3.60757747e-06      -7.35030675e-06 
      -1.57253262e-07       4.01447174e-06      -8.18596129e-06 
      -4.58074966e-07       4.01447142e-06      -8.18855280e-06 
       1.56036003e-07       4.01706421e-06      -8.18855411e-06 
       4.56857707e-07       4.01706453e-06      -8.18596261e-06 
      -1.57253262e-07       4.01447174e-06      -8.18596129e-06 
      -4.58074966e-07       4.01447142e-06      -8.18855280e-06 
       1.56036003e-07       4.01706421e-06      -8.18855411e-06 
       4.56857707e-07       4.01706453e-06      -8.18596261e-06 
      -1.64310771e-07       4.44268840e-06      -9.06030183e-06 
      -4.78508903e-07       4.44268806e-06      -9.06302841e-06 
       1.63039557e-07       4.44541604e-06      -9.06302985e-06 
       4.77237689e-07       4.44541639e-06      -9.06030326e-06 
      -1.64310771e-07       4.44268840e-06      -9.06030183e-06 
      -4.78508903e-07       4.44268806e-06      -9.06302841e-06 
       1.63039557e-07       4.44541604e-06      -9.06302985e-06 
       4.77237689e-07       4.44541639e-06      -9.06030326e-06 
      -1.71197370e-07       4.88929685e-06      -9.97237763e-06 
      -4.98432267e-07       4.88929647e-06      -9.97523930e-06 
       1.69871859e-07       4.89215966e-06      -9.97524085e-06 
       4.97106755e-07       4.89216004e-06      -9.97237919e-06 
      -1.71197370e-07       4.88929685e-06      -9.97237763e-06 
      -4.98432267e-07       4.88929647e-06      -9.97523930e-06 
       1.69871859e-07       4.89215966e-06      -9.97524085e-06 
       4.97106755e-07       4.89216004e-06      -9.97237919e-06 
      -1.77910583e-07       5.35384109e-06      -1.09212635e-05 
      -5.17862120e-07       5.35384069e-06      -1.09242443e-05 
       1.76551517e-07       5.35682313e-06      -1.09242460e-05 
       5.16503054e-07       5.35682354e-06      -1.09212651e-05 
      -1.77910583e-07       5.35384109e-06      -1.09212635e-05 
      -5.17862120e-07       5.35384069e-06      -1.09242443e-05 
       1.76551517e-07       5.35682313e-06      -1.09242460e-05 
       5.16503054e-07       5.35682354e-06      -1.09212651e-05 
      -1.84470105e-07       5.83588555e-06      -1.19060863e-05 
      -5.36837779e-07       5.83588511e-06      -1.19091863e-05 
       1.83076994e-07       5.83898683e-06      -1.19091881e-05 
       5.35444667e-07       5.83898726e-06      -1.19060882e-05 
      -1.84470105e-07       5.83588555e-06      -1.19060863e-05 
      -5.36837779e-07       5.83588511e-06      -1.19091863e-05 
       1.83076994e-07       5.83898683e-06      -1.19091881e-05 
       5.35444667e-07       5.83898726e-06      -1.19060882e-05 
      -1.90875928e-07       6.33501174e-06      -1.29259990e-05 
      -5.55359235e-07       6.33501127e-06      -1.29292181e-05 
       1.89448295e-07       6.33823225e-06      -1.29292200e-05 
       5.53931602e-07       6.33823271e-06      -1.29260010e-05 
      -1.90875928e-07       6.33501174e-06      -1.29259990e-05 
      -5.55359235e-07       6.33501127e-06      -1.29292181e-05 
       1.89448295e-07       6.33823225e-06      -1.29292200e-05 
       5.53931602e-07       6.33823271e-06      -1.29260010e-05 
      -1.97128049e-07       6.85080117e-06      -1.39801543e-05 
      -5.73426486e-07       6.85080067e-06      -1.39834925e-05 
       1.95665426e-07       6.85414091e-06      -1.39834946e-05 
       5.71963863e-07       6.85414140e-06      -1.39801563e-05 
      -1.97128049e-07       6.85080117e-06      -1.39801543e-05 
      -5.73426486e-07       6.85080067e-06      -1.39834925e-05 
       1.95665426e-07       6.85414091e-06      -1.39834946e-05 
       5.71963863e-07       6.85414140e-06      -1.39801563e-05 
      -2.03226461e-07       7.38283535e-06      -1.50677048e-05 
      -5.91039524e-07       7.38283483e-06      -1.50711622e-05 
       2.01728393e-07       7.38629433e-06      -1.50711644e-05 
       5.89541457e-07       7.38629485e-06      -1.50677070e-05 
      -2.03226461e-07       7.38283535e-06      -1.50677048e-05 
      -5.91039524e-07       7.38283483e-06      -1.50711622e-05 
       2.01728393e-07       7.38629433e-06      -1.50711644e-05 
       5.89541457e-07       7.38629485e-06      -1.50677070e-05 
      -2.09171158e-07       7.93069581e-06      -1.61878035e-05 
      -6.08198344e-07       7.93069526e-06      -1.61913800e-05 
       2.07637203e-07       7.93427402e-06      -1.61913823e-05 
       6.06664389e-07       7.93427457e-06      -1.61878058e-05 
      -2.09171158e-07       7.93069581e-06      -1.61878035e-05 
      -6.08198344e-07       7.93069526e-06      -1.61913800e-05 
       2.07637203e-07       7.93427402e-06      -1.61913823e-05 
       6.06664389e-07       7.93427457e-06      -1.61878058e-05 
      -2.14962135e-07       8.49396404e-06      -1.73396030e-05 
      -6.24902940e-07       8.49396346e-06      -1.73432987e-05 
       2.13391859e-07       8.49766149e-06      -1.73433011e-05 
       6.23332665e-07       8.49766207e-06      -1.73396055e-05 
      -2.14962135e-07       8.49396404e-06      -1.73396030e-05 
      -6.24902940e-07       8.49396346e-06      -1.73432987e-05 
       2.13391859e-07       8.49766149e-06      -1.73433011e-05 
       6.23332665e-07       8.49766207e-06      -1.73396055e-05 
      -2.20599384e-07       9.07222157e-06      -1.85222562e-05 
      -6.41153306e-07       9.07222096e-06      -1.85260709e-05 
       2.18992370e-07       9.07603825e-06      -1.85260735e-05 
       6.39546291e-07       9.07603887e-06      -1.85222587e-05 
      -2.20599384e-07       9.07222157e-06      -1.85222562e-05 
      -6.41153306e-07       9.07222096e-06      -1.85260709e-05 
       2.18992370e-07       9.07603825e-06      -1.85260735e-05 
       6.39546291e-07       9.07603887e-06      -1.85222587e-05 
      -2.26082902e-07       9.66504991e-06      -1.97349157e-05 
      -6.56949436e-07       9.66504926e-06      -1.97388496e-05 
       2.24438739e-07       9.66898582e-06      -1.97388523e-05 
       6.55305273e-07       9.66898646e-06      -1.97349184e-05 
      -2.26082902e-07       9.66504991e-06      -1.97349157e-05 
      -6.56949436e-07       9.66504926e-06      -1.97388496e-05 
       2.24438739e-07       9.66898582e-06      -1.97388523e-05 
       6.55305273e-07       9.66898646e-06      -1.97349184e-05 
      -2.31412682e-07       1.02720306e-05      -2.09767343e-05 
      -6.72291325e-07       1.02720299e-05      -2.09807874e-05 
       2.29730973e-07       1.02760857e-05      -2.09807902e-05 
       6.70609616e-07       1.02760864e-05      -2.09767371e-05 
      -2.31412682e-07       1.02720306e-05      -2.09767343e-05 
      -6.72291325e-07       1.02720299e-05      -2.09807874e-05 
       2.29730973e-07       1.02760857e-05      -2.09807902e-05 
       6.70609616e-07       1.02760864e-05      -2.09767371e-05 
      -2.36590005e-07       1.08927620e-05      -2.22468892e-05 
      -6.87199744e-07       1.08927613e-05      -2.22510455e-05 
       2.34884444e-07       1.08969205e-05      -2.22510484e-05 
       6.85494183e-07       1.08969212e-05      -2.22468922e-05 
      -2.36590005e-07       1.08927620e-05      -2.22468892e-05 
      -6.87199744e-07       1.08927613e-05      -2.22510455e-05 
       2.34884444e-07       1.08969205e-05      -2.22510484e-05 
       6.85494183e-07       1.08969212e-05      -2.22468922e-05 
      -2.41631751e-07       1.15268633e-05      -2.35446118e-05 
      -7.01711430e-07       1.15268626e-05      -2.35488712e-05 
       2.39901864e-07       1.15311251e-05      -2.35488743e-05 
       6.99981544e-07       1.15311258e-05      -2.35446148e-05 
      -2.41631751e-07       1.15268633e-05      -2.35446118e-05 
      -7.01711430e-07       1.15268626e-05      -2.35488712e-05 
       2.39901864e-07       1.15311251e-05      -2.35488743e-05 
       6.99981544e-07       1.15311258e-05      -2.35446148e-05 
      -2.46537909e-07       1.21739709e-05      -2.48691600e-05 
      -7.15826375e-07       1.21739701e-05      -2.48735226e-05 
       2.44783240e-07       1.21783359e-05      -2.48735259e-05 
       7.14071706e-07       1.21783367e-05      -2.48691632e-05 
      -2.46537909e-07       1.21739709e-05      -2.48691600e-05 
      -7.15826375e-07       1.21739701e-05      -2.48735226e-05 
       2.44783240e-07       1.21783359e-05      -2.48735259e-05 
       7.14071706e-07       1.21783367e-05      -2.48691632e-05 
      -2.51308477e-07       1.28337209e-05      -2.62197918e-05 
      -7.29544575e-07       1.28337201e-05      -2.62242578e-05 
       2.49528576e-07       1.28381893e-05      -2.62242611e-05 
       7.27764673e-07       1.28381901e-05      -2.62197952e-05 
      -2.51308477e-07       1.28337209e-05      -2.62197918e-05 
      -7.29544575e-07       1.28337201e-05      -2.62242578e-05 
       2.49528576e-07       1.28381893e-05      -2.62242611e-05 
       7.27764673e-07       1.28381901e-05      -2.62197952e-05 
      -2.55943448e-07       1.35057497e-05      -2.75957655e-05 
      -7.42866022e-07       1.35057489e-05      -2.76003346e-05 
       2.54137881e-07       1.35103214e-05      -2.76003381e-05 
       7.41060455e-07       1.35103223e-05      -2.75957689e-05 
      -2.55943448e-07       1.35057497e-05      -2.75957655e-05 
      -7.42866022e-07       1.35057489e-05      -2.76003346e-05 
       2.54137881e-07       1.35103214e-05      -2.76003381e-05 
       7.41060455e-07       1.35103223e-05      -2.75957689e-05 
      -2.60442813e-07       1.41896937e-05      -2.89963389e-05 
      -7.55790709e-07       1.41896929e-05      -2.90010112e-05 
       2.58611159e-07       1.41943687e-05      -2.90010148e-05 
       7.53959055e-07       1.41943696e-05      -2.89963424e-05 
      -2.60442813e-07       1.41896937e-05      -2.89963389e-05 
      -7.55790709e-07       1.41896929e-05      -2.90010112e-05 
       2.58611159e-07       1.41943687e-05      -2.90010148e-05 
       7.53959055e-07       1.41943696e-05      -2.89963424e-05 
      -2.64806569e-07       1.48851891e-05      -3.04207701e-05 
      -7.68318632e-07       1.48851882e-05      -3.04255456e-05 
       2.62948419e-07       1.48899674e-05      -3.04255493e-05 
       7.66460482e-07       1.48899683e-05      -3.04207738e-05 
      -2.64806569e-07       1.48851891e-05      -3.04207701e-05 
      -7.68318632e-07       1.48851882e-05      -3.04255456e-05 
       2.62948419e-07       1.48899674e-05      -3.04255493e-05 
       7.66460482e-07       1.48899683e-05      -3.04207738e-05 
      -2.69034706e-07       1.55918723e-05      -3.18683171e-05 
      -7.80449781e-07       1.55918714e-05      -3.18731958e-05 
       2.67149665e-07       1.55967539e-05      -3.18731997e-05 
       7.78564742e-07       1.55967548e-05      -3.18683209e-05 
      -2.69034706e-07       1.55918723e-05      -3.18683171e-05 
      -7.80449781e-07       1.55918714e-05      -3.18731958e-05 