# vtk DataFile Version 2.0
./output/onsasExample_BladeCantileverBeamPitch_windVel3DDynamic 3D/onsasExample_BladeCantileverBeamPitch_windVel3DDynamic 3D_0050.vtk
ASCII
DATASET UNSTRUCTURED_GRID

POINTS 800 float
       5.803460e-24      -7.180703e-02      -7.180703e-02 
      -6.504034e-24       7.180703e-02      -7.180703e-02 
      -5.803460e-24       7.180703e-02       7.180703e-02 
       6.504034e-24      -7.180703e-02       7.180703e-02 
       2.000000e-01      -7.180702e-02      -7.180706e-02 
       2.000000e-01       7.180705e-02      -7.180706e-02 
       2.000000e-01       7.180705e-02       7.180701e-02 
       2.000000e-01      -7.180702e-02       7.180701e-02 
       2.000000e-01      -7.180702e-02      -7.180706e-02 
       2.000000e-01       7.180705e-02      -7.180706e-02 
       2.000000e-01       7.180705e-02       7.180701e-02 
       2.000000e-01      -7.180702e-02       7.180701e-02 
       4.000000e-01      -7.180698e-02      -7.180714e-02 
       3.999999e-01       7.180709e-02      -7.180714e-02 
       4.000000e-01       7.180709e-02       7.180693e-02 
       4.000001e-01      -7.180698e-02       7.180693e-02 
       4.000000e-01      -7.180698e-02      -7.180714e-02 
       3.999999e-01       7.180709e-02      -7.180714e-02 
       4.000000e-01       7.180709e-02       7.180693e-02 
       4.000001e-01      -7.180698e-02       7.180693e-02 
       6.000000e-01      -7.180691e-02      -7.180726e-02 
       5.999999e-01       7.180715e-02      -7.180726e-02 
       6.000000e-01       7.180715e-02       7.180680e-02 
       6.000001e-01      -7.180691e-02       7.180680e-02 
       6.000000e-01      -7.180691e-02      -7.180726e-02 
       5.999999e-01       7.180715e-02      -7.180726e-02 
       6.000000e-01       7.180715e-02       7.180680e-02 
       6.000001e-01      -7.180691e-02       7.180680e-02 
       8.000000e-01      -7.180682e-02      -7.180744e-02 
       7.999999e-01       7.180725e-02      -7.180744e-02 
       8.000000e-01       7.180725e-02       7.180663e-02 
       8.000001e-01      -7.180682e-02       7.180663e-02 
       8.000000e-01      -7.180682e-02      -7.180744e-02 
       7.999999e-01       7.180725e-02      -7.180744e-02 
       8.000000e-01       7.180725e-02       7.180663e-02 
       8.000001e-01      -7.180682e-02       7.180663e-02 
       1.000000e+00      -7.180670e-02      -7.180766e-02 
       9.999999e-01       7.180736e-02      -7.180766e-02 
       1.000000e+00       7.180737e-02       7.180641e-02 
       1.000000e+00      -7.180670e-02       7.180641e-02 
       1.000000e+00      -7.180670e-02      -7.180766e-02 
       9.999999e-01       7.180736e-02      -7.180766e-02 
       1.000000e+00       7.180737e-02       7.180641e-02 
       1.000000e+00      -7.180670e-02       7.180641e-02 
       1.200000e+00      -7.180656e-02      -7.180793e-02 
       1.200000e+00       7.180751e-02      -7.180793e-02 
       1.200000e+00       7.180751e-02       7.180614e-02 
       1.200000e+00      -7.180656e-02       7.180614e-02 
       1.200000e+00      -7.180656e-02      -7.180793e-02 
       1.200000e+00       7.180751e-02      -7.180793e-02 
       1.200000e+00       7.180751e-02       7.180614e-02 
       1.200000e+00      -7.180656e-02       7.180614e-02 
       1.400000e+00      -7.180639e-02      -7.180824e-02 
       1.400000e+00       7.180767e-02      -7.180825e-02 
       1.400000e+00       7.180768e-02       7.180582e-02 
       1.400000e+00      -7.180639e-02       7.180582e-02 
       1.400000e+00      -7.180639e-02      -7.180824e-02 
       1.400000e+00       7.180767e-02      -7.180825e-02 
       1.400000e+00       7.180768e-02       7.180582e-02 
       1.400000e+00      -7.180639e-02       7.180582e-02 
       1.600000e+00      -7.180620e-02      -7.180860e-02 
       1.600000e+00       7.180787e-02      -7.180861e-02 
       1.600000e+00       7.180787e-02       7.180546e-02 
       1.600000e+00      -7.180620e-02       7.180546e-02 
       1.600000e+00      -7.180620e-02      -7.180860e-02 
       1.600000e+00       7.180787e-02      -7.180861e-02 
       1.600000e+00       7.180787e-02       7.180546e-02 
       1.600000e+00      -7.180620e-02       7.180546e-02 
       1.800000e+00      -7.180599e-02      -7.180901e-02 
       1.800000e+00       7.180808e-02      -7.180901e-02 
       1.800000e+00       7.180808e-02       7.180506e-02 
       1.800000e+00      -7.180599e-02       7.180506e-02 
       1.800000e+00      -7.180599e-02      -7.180901e-02 
       1.800000e+00       7.180808e-02      -7.180901e-02 
       1.800000e+00       7.180808e-02       7.180506e-02 
       1.800000e+00      -7.180599e-02       7.180506e-02 
       2.000000e+00      -7.180575e-02      -7.180946e-02 
       2.000000e+00       7.180832e-02      -7.180946e-02 
       2.000000e+00       7.180832e-02       7.180461e-02 
       2.000000e+00      -7.180575e-02       7.180461e-02 
       2.000000e+00      -7.180575e-02      -7.180946e-02 
       2.000000e+00       7.180832e-02      -7.180946e-02 
       2.000000e+00       7.180832e-02       7.180461e-02 
       2.000000e+00      -7.180575e-02       7.180461e-02 
       2.200000e+00      -7.180549e-02      -7.180994e-02 
       2.200000e+00       7.180858e-02      -7.180995e-02 
       2.200000e+00       7.180858e-02       7.180412e-02 
       2.200000e+00      -7.180549e-02       7.180412e-02 
       2.200000e+00      -7.180549e-02      -7.180994e-02 
       2.200000e+00       7.180858e-02      -7.180995e-02 
       2.200000e+00       7.180858e-02       7.180412e-02 
       2.200000e+00      -7.180549e-02       7.180412e-02 
       2.400000e+00      -7.180521e-02      -7.181047e-02 
       2.400000e+00       7.180886e-02      -7.181048e-02 
       2.400000e+00       7.180886e-02       7.180359e-02 
       2.400000e+00      -7.180521e-02       7.180359e-02 
       2.400000e+00      -7.180521e-02      -7.181047e-02 
       2.400000e+00       7.180886e-02      -7.181048e-02 
       2.400000e+00       7.180886e-02       7.180359e-02 
       2.400000e+00      -7.180521e-02       7.180359e-02 
       2.600000e+00      -7.180491e-02      -7.181104e-02 
       2.600000e+00       7.180916e-02      -7.181105e-02 
       2.600000e+00       7.180916e-02       7.180302e-02 
       2.600000e+00      -7.180491e-02       7.180302e-02 
       2.600000e+00      -7.180491e-02      -7.181104e-02 
       2.600000e+00       7.180916e-02      -7.181105e-02 
       2.600000e+00       7.180916e-02       7.180302e-02 
       2.600000e+00      -7.180491e-02       7.180302e-02 
       2.800000e+00      -7.180459e-02      -7.181165e-02 
       2.800000e+00       7.180948e-02      -7.181166e-02 
       2.800000e+00       7.180948e-02       7.180241e-02 
       2.800000e+00      -7.180458e-02       7.180241e-02 
       2.800000e+00      -7.180459e-02      -7.181165e-02 
       2.800000e+00       7.180948e-02      -7.181166e-02 
       2.800000e+00       7.180948e-02       7.180241e-02 
       2.800000e+00      -7.180458e-02       7.180241e-02 
       3.000000e+00      -7.180424e-02      -7.181230e-02 
       3.000000e+00       7.180982e-02      -7.181230e-02 
       3.000000e+00       7.180983e-02       7.180176e-02 
       3.000000e+00      -7.180424e-02       7.180177e-02 
       3.000000e+00      -7.180424e-02      -7.181230e-02 
       3.000000e+00       7.180982e-02      -7.181230e-02 
       3.000000e+00       7.180983e-02       7.180176e-02 
       3.000000e+00      -7.180424e-02       7.180177e-02 
       3.200000e+00      -7.180388e-02      -7.181299e-02 
       3.200000e+00       7.181019e-02      -7.181299e-02 
       3.200000e+00       7.181019e-02       7.180108e-02 
       3.200000e+00      -7.180388e-02       7.180108e-02 
       3.200000e+00      -7.180388e-02      -7.181299e-02 
       3.200000e+00       7.181019e-02      -7.181299e-02 
       3.200000e+00       7.181019e-02       7.180108e-02 
       3.200000e+00      -7.180388e-02       7.180108e-02 
       3.400000e+00      -7.180350e-02      -7.181371e-02 
       3.400000e+00       7.181057e-02      -7.181371e-02 
       3.400000e+00       7.181057e-02       7.180036e-02 
       3.400000e+00      -7.180350e-02       7.180036e-02 
       3.400000e+00      -7.180350e-02      -7.181371e-02 
       3.400000e+00       7.181057e-02      -7.181371e-02 
       3.400000e+00       7.181057e-02       7.180036e-02 
       3.400000e+00      -7.180350e-02       7.180036e-02 
       3.600000e+00      -7.180310e-02      -7.181446e-02 
       3.600000e+00       7.181097e-02      -7.181447e-02 
       3.600000e+00       7.181097e-02       7.179960e-02 
       3.600000e+00      -7.180309e-02       7.179960e-02 
       3.600000e+00      -7.180310e-02      -7.181446e-02 
       3.600000e+00       7.181097e-02      -7.181447e-02 
       3.600000e+00       7.181097e-02       7.179960e-02 
       3.600000e+00      -7.180309e-02       7.179960e-02 
       3.800000e+00      -7.180268e-02      -7.181526e-02 
       3.800000e+00       7.181139e-02      -7.181526e-02 
       3.800000e+00       7.181139e-02       7.179881e-02 
       3.800000e+00      -7.180268e-02       7.179881e-02 
       3.800000e+00      -7.180268e-02      -7.181526e-02 
       3.800000e+00       7.181139e-02      -7.181526e-02 
       3.800000e+00       7.181139e-02       7.179881e-02 
       3.800000e+00      -7.180268e-02       7.179881e-02 
       4.000000e+00      -7.180224e-02      -7.181608e-02 
       4.000000e+00       7.181183e-02      -7.181608e-02 
       4.000000e+00       7.181183e-02       7.179798e-02 
       4.000000e+00      -7.180224e-02       7.179799e-02 
       4.000000e+00      -7.180224e-02      -7.181608e-02 
       4.000000e+00       7.181183e-02      -7.181608e-02 
       4.000000e+00       7.181183e-02       7.179798e-02 
       4.000000e+00      -7.180224e-02       7.179799e-02 
       4.200000e+00      -7.180179e-02      -7.181694e-02 
[...]
POINT_DATA       800 
VECTORS Displacements float
       5.80345994e-24       1.38777878e-17       0.00000000e+00 
      -6.50403413e-24       1.38777878e-17       0.00000000e+00 
      -5.80345994e-24      -1.38777878e-17       0.00000000e+00 
       6.50403413e-24      -1.38777878e-17       0.00000000e+00 
      -8.69935340e-09       1.35531485e-08      -2.56493112e-08 
      -2.82089600e-08       1.35531472e-08      -2.58002359e-08 
       8.61649302e-09       1.37040769e-08      -2.58002406e-08 
       2.81260996e-08       1.37040782e-08      -2.56493159e-08 
      -8.69935340e-09       1.35531485e-08      -2.56493112e-08 
      -2.82089600e-08       1.35531472e-08      -2.58002359e-08 
       8.61649302e-09       1.37040769e-08      -2.58002406e-08 
       2.81260996e-08       1.37040782e-08      -2.56493159e-08 
      -1.72309458e-08       5.40125930e-08      -1.02085596e-07 
      -5.58721736e-08       5.40125878e-08      -1.02387441e-07 
       1.70650674e-08       5.43144520e-08      -1.02387459e-07 
       5.57062952e-08       5.43144572e-08      -1.02085615e-07 
      -1.72309458e-08       5.40125930e-08      -1.02085596e-07 
      -5.58721736e-08       5.40125878e-08      -1.02387441e-07 
       1.70650674e-08       5.43144520e-08      -1.02387459e-07 
       5.57062952e-08       5.43144572e-08      -1.02085615e-07 
      -2.55947756e-08       1.20851943e-07      -2.28314990e-07 
      -8.29896393e-08       1.20851932e-07      -2.28767750e-07 
       2.53457245e-08       1.21304735e-07      -2.28767791e-07 
       8.27405882e-08       1.21304746e-07      -2.28315031e-07 
      -2.55947756e-08       1.20851943e-07      -2.28314990e-07 
      -8.29896393e-08       1.20851932e-07      -2.28767750e-07 
       2.53457245e-08       1.21304735e-07      -2.28767791e-07 
       8.27405882e-08       1.21304746e-07      -2.28315031e-07 
      -3.37908411e-08       2.13544808e-07      -4.03343627e-07 
      -1.09561355e-07       2.13544788e-07      -4.03947299e-07 
       3.34584663e-08       2.14148535e-07      -4.03947370e-07 
       1.09228980e-07       2.14148555e-07      -4.03343699e-07 
      -3.37908411e-08       2.13544808e-07      -4.03343627e-07 
      -1.09561355e-07       2.13544788e-07      -4.03947299e-07 
       3.34584663e-08       2.14148535e-07      -4.03947370e-07 
       1.09228980e-07       2.14148555e-07      -4.03343699e-07 
      -4.18191411e-08       3.31564798e-07      -6.26177644e-07 
      -1.35587320e-07       3.31564767e-07      -6.26932222e-07 
       4.14032937e-08       3.32319461e-07      -6.26932331e-07 
       1.35171473e-07       3.32319492e-07      -6.26177753e-07 
      -4.18191411e-08       3.31564798e-07      -6.26177644e-07 
      -1.35587320e-07       3.31564767e-07      -6.26932222e-07 
       4.14032937e-08       3.32319461e-07      -6.26932331e-07 
       1.35171473e-07       3.32319492e-07      -6.26177753e-07 
      -4.96796742e-08       4.74385522e-07      -8.95823174e-07 
      -1.61067533e-07       4.74385479e-07      -8.96728656e-07 
       4.91802088e-08       4.75291124e-07      -8.96728810e-07 
       1.60568068e-07       4.75291167e-07      -8.95823328e-07 
      -4.96796742e-08       4.74385522e-07      -8.95823174e-07 
      -1.61067533e-07       4.74385479e-07      -8.96728656e-07 
       4.91802088e-08       4.75291124e-07      -8.96728810e-07 
       1.60568068e-07       4.75291167e-07      -8.95823328e-07 
      -5.73724381e-08       6.41480590e-07      -1.21128635e-06 
      -1.86001992e-07       6.41480533e-07      -1.21234273e-06 
       5.67892129e-08       6.42537132e-07      -1.21234294e-06 
       1.85418767e-07       6.42537190e-07      -1.21128656e-06 
      -5.73724381e-08       6.41480590e-07      -1.21128635e-06 
      -1.86001992e-07       6.41480533e-07      -1.21234273e-06 
       5.67892129e-08       6.42537132e-07      -1.21234294e-06 
       1.85418767e-07       6.42537190e-07      -1.21128656e-06 
      -6.48974317e-08       8.32323612e-07      -1.57157332e-06 
      -2.10390694e-07       8.32323538e-07      -1.57278059e-06 
       6.42303080e-08       8.33531095e-07      -1.57278086e-06 
       2.09723571e-07       8.33531169e-07      -1.57157358e-06 
      -6.48974317e-08       8.32323612e-07      -1.57157332e-06 
      -2.10390694e-07       8.32323538e-07      -1.57278059e-06 
       6.42303080e-08       8.33531095e-07      -1.57278086e-06 
       2.09723571e-07       8.33531169e-07      -1.57157358e-06 
      -7.22546538e-08       1.04638820e-06      -1.97569020e-06 
      -2.34233640e-07       1.04638810e-06      -1.97704837e-06 
       7.15034949e-08       1.04774662e-06      -1.97704870e-06 
       2.33482481e-07       1.04774671e-06      -1.97569052e-06 
      -7.22546538e-08       1.04638820e-06      -1.97569020e-06 
      -2.34233640e-07       1.04638810e-06      -1.97704837e-06 
       7.15034949e-08       1.04774662e-06      -1.97704870e-06 
       2.33482481e-07       1.04774671e-06      -1.97569052e-06 
      -7.94441022e-08       1.28314795e-06      -2.42264313e-06 
      -2.57530827e-07       1.28314784e-06      -2.42415220e-06 
       7.86087755e-08       1.28465732e-06      -2.42415259e-06 
       2.56695500e-07       1.28465743e-06      -2.42264353e-06 
      -7.94441024e-08       1.28314795e-06      -2.42264313e-06 
      -2.57530827e-07       1.28314784e-06      -2.42415220e-06 
       7.86087755e-08       1.28465732e-06      -2.42415259e-06 
       2.56695500e-07       1.28465743e-06      -2.42264353e-06 
      -8.64614336e-08       1.54209399e-06      -2.91146517e-06 
      -2.80298336e-07       1.54209386e-06      -2.91310915e-06 
       8.55703131e-08       1.54373834e-06      -2.91310962e-06 
       2.79407215e-07       1.54373847e-06      -2.91146563e-06 
      -8.64614336e-08       1.54209399e-06      -2.91146517e-06 
      -2.80298336e-07       1.54209386e-06      -2.91310915e-06 
       8.55703131e-08       1.54373834e-06      -2.91310962e-06 
       2.79407215e-07       1.54373847e-06      -2.91146563e-06 
      -9.33300206e-08       1.82273910e-06      -3.44124616e-06 
      -3.02579664e-07       1.82273895e-06      -3.44302506e-06 
       9.23827592e-08       1.82451842e-06      -3.44302560e-06 
       3.01632403e-07       1.82451858e-06      -3.44124670e-06 
      -9.33300206e-08       1.82273910e-06      -3.44124616e-06 
      -3.02579664e-07       1.82273895e-06      -3.44302506e-06 
       9.23827592e-08       1.82451842e-06      -3.44302560e-06 
       3.01632403e-07       1.82451858e-06      -3.44124670e-06 
      -1.00049860e-07       2.12461336e-06      -4.01110141e-06 
      -3.24374809e-07       2.12461319e-06      -4.01301522e-06 
       9.90461175e-08       2.12652766e-06      -4.01301585e-06 
       3.23371067e-07       2.12652784e-06      -4.01110203e-06 
      -1.00049860e-07       2.12461336e-06      -4.01110141e-06 
      -3.24374809e-07       2.12461319e-06      -4.01301522e-06 
       9.90461175e-08       2.12652766e-06      -4.01301585e-06 
       3.23371067e-07       2.12652784e-06      -4.01110203e-06 
      -1.06620948e-07       2.44724685e-06      -4.62014623e-06 
      -3.45683766e-07       2.44724665e-06      -4.62219495e-06 
       1.05560392e-07       2.44929613e-06      -4.62219566e-06 
       3.44623210e-07       2.44929633e-06      -4.62014694e-06 
      -1.06620948e-07       2.44724685e-06      -4.62014623e-06 
      -3.45683766e-07       2.44724665e-06      -4.62219495e-06 
       1.05560392e-07       2.44929613e-06      -4.62219566e-06 
       3.44623210e-07       2.44929633e-06      -4.62014694e-06 
      -1.13043281e-07       2.79016965e-06      -5.26749593e-06 
      -3.66506532e-07       2.79016942e-06      -5.26967956e-06 
       1.11925586e-07       2.79235390e-06      -5.26968036e-06 
       3.65388837e-07       2.79235413e-06      -5.26749673e-06 
      -1.13043281e-07       2.79016965e-06      -5.26749593e-06 
      -3.66506532e-07       2.79016942e-06      -5.26967956e-06 
       1.11925586e-07       2.79235390e-06      -5.26968036e-06 
       3.65388837e-07       2.79235413e-06      -5.26749673e-06 
      -1.19316855e-07       3.15291183e-06      -5.95226581e-06 
      -3.86843103e-07       3.15291158e-06      -5.95458435e-06 
       1.18141704e-07       3.15523106e-06      -5.95458524e-06 
       3.85667952e-07       3.15523131e-06      -5.95226670e-06 
      -1.19316855e-07       3.15291183e-06      -5.95226581e-06 
      -3.86843103e-07       3.15291158e-06      -5.95458435e-06 
       1.18141704e-07       3.15523106e-06      -5.95458524e-06 
       3.85667952e-07       3.15523131e-06      -5.95226670e-06 
      -1.25441665e-07       3.53500348e-06      -6.67357119e-06 
      -4.06693474e-07       3.53500320e-06      -6.67602464e-06 
       1.24208749e-07       3.53745769e-06      -6.67602562e-06 
       4.05460558e-07       3.53745797e-06      -6.67357217e-06 
      -1.25441665e-07       3.53500348e-06      -6.67357119e-06 
      -4.06693474e-07       3.53500320e-06      -6.67602464e-06 
       1.24208749e-07       3.53745769e-06      -6.67602562e-06 
       4.05460558e-07       3.53745797e-06      -6.67357217e-06 
      -1.31417710e-07       3.93597467e-06      -7.43052736e-06 
      -4.26057644e-07       3.93597437e-06      -7.43311572e-06 
       1.30126725e-07       3.93856387e-06      -7.43311679e-06 
       4.24766659e-07       3.93856417e-06      -7.43052844e-06 
      -1.31417710e-07       3.93597467e-06      -7.43052736e-06 
      -4.26057644e-07       3.93597437e-06      -7.43311572e-06 
       1.30126725e-07       3.93856387e-06      -7.43311679e-06 
       4.24766659e-07       3.93856417e-06      -7.43052844e-06 
      -1.37244985e-07       4.35535549e-06      -8.22224964e-06 
      -4.44935607e-07       4.35535516e-06      -8.22497290e-06 
       1.35895637e-07       4.35807967e-06      -8.22497408e-06 
       4.43586258e-07       4.35808000e-06      -8.22225082e-06 
      -1.37244985e-07       4.35535549e-06      -8.22224964e-06 
      -4.44935607e-07       4.35535516e-06      -8.22497290e-06 
       1.35895637e-07       4.35807967e-06      -8.22497408e-06 
       4.43586258e-07       4.35808000e-06      -8.22225082e-06 
      -1.42923486e-07       4.79267602e-06      -9.04785334e-06 
      -4.63327360e-07       4.79267566e-06      -9.05071150e-06 
       1.41515486e-07       4.79553518e-06      -9.05071278e-06 
       4.61919360e-07       4.79553553e-06      -9.04785461e-06 
      -1.42923486e-07       4.79267602e-06      -9.04785334e-06 
      -4.63327360e-07       4.79267566e-06      -9.05071150e-06 
       1.41515486e-07       4.79553518e-06      -9.05071278e-06 
       4.61919360e-07       4.79553553e-06      -9.04785461e-06 
      -1.48452711e-07       5.24748375e-06      -9.90648020e-06 
      -4.81252699e-07       5.24748336e-06      -9.90945733e-06 
       1.47005836e-07       5.25046195e-06      -9.90945870e-06 
       4.79805824e-07       5.25046233e-06      -9.90648158e-06 
      -1.48452711e-07       5.24748375e-06      -9.90648020e-06 
      -4.81252699e-07       5.24748336e-06      -9.90945733e-06 
       1.47005836e-07       5.25046195e-06      -9.90945870e-06 
       4.79805824e-07       5.25046233e-06      -9.90648158e-06 
      -1.53851527e-07       5.71934770e-06      -1.07973275e-05 
      -4.98750532e-07       5.71934728e-06      -1.08004236e-05 
       1.52365366e-07       5.72244493e-06      -1.08004250e-05 
       4.97264371e-07       5.72244535e-06      -1.07973290e-05 
      -1.53851527e-07       5.71934770e-06      -1.07973275e-05 
      -4.98750532e-07       5.71934728e-06      -1.08004236e-05 
       1.52365366e-07       5.72244493e-06      -1.08004250e-05 
       4.97264371e-07       5.72244535e-06      -1.07973290e-05 
      -1.59119925e-07       6.20785412e-06      -1.17196176e-05 
      -5.15820854e-07       6.20785368e-06      -1.17228327e-05 
       1.57594080e-07       6.21107040e-06      -1.17228343e-05 
       5.14295009e-07       6.21107084e-06      -1.17196192e-05 
      -1.59119925e-07       6.20785412e-06      -1.17196176e-05 
      -5.15820854e-07       6.20785368e-06      -1.17228327e-05 
       1.57594080e-07       6.21107040e-06      -1.17228343e-05 
       5.14295009e-07       6.21107084e-06      -1.17196192e-05 
      -1.64257905e-07       6.71258928e-06      -1.26725732e-05 
      -5.32463662e-07       6.71258881e-06      -1.26759072e-05 
       1.62691983e-07       6.71592460e-06      -1.26759088e-05 
       5.30897740e-07       6.71592507e-06      -1.26725748e-05 
      -1.64257905e-07       6.71258928e-06      -1.26725732e-05 
      -5.32463662e-07       6.71258881e-06      -1.26759072e-05 
       1.62691983e-07       6.71592460e-06      -1.26759088e-05 
       5.30897740e-07       6.71592507e-06      -1.26725748e-05 
      -1.69265459e-07       7.23313944e-06      -1.36554165e-05 
      -5.48678949e-07       7.23313894e-06      -1.36588694e-05 
       1.67659080e-07       7.23659380e-06      -1.36588712e-05 
       5.47072570e-07       7.23659430e-06      -1.36554183e-05 
      -1.69265459e-07       7.23313944e-06      -1.36554165e-05 
      -5.48678949e-07       7.23313894e-06      -1.36588694e-05 
       1.67659080e-07       7.23659380e-06      -1.36588712e-05 
       5.47072570e-07       7.23659430e-06      -1.36554183e-05 
      -1.74142583e-07       7.76909086e-06      -1.46673701e-05 
      -5.64466712e-07       7.76909033e-06      -1.46709420e-05 
       1.72495377e-07       7.77266426e-06      -1.46709439e-05 
       5.62819506e-07       7.77266479e-06      -1.46673720e-05 
      -1.74142583e-07       7.76909086e-06      -1.46673701e-05 
      -5.64466712e-07       7.76909033e-06      -1.46709420e-05 
       1.72495377e-07       7.77266426e-06      -1.46709439e-05 
       5.62819506e-07       7.77266479e-06      -1.46673720e-05 
      -1.78889271e-07       8.32002979e-06      -1.57076564e-05 
      -5.79826945e-07       8.32002923e-06      -1.57113473e-05 
       1.77200878e-07       8.32372223e-06      -1.57113493e-05 
       5.78138550e-07       8.32372279e-06      -1.57076584e-05 
      -1.78889271e-07       8.32002979e-06      -1.57076564e-05 
      -5.79826945e-07       8.32002923e-06      -1.57113473e-05 
       1.77200878e-07       8.32372223e-06      -1.57113493e-05 
       5.78138550e-07       8.32372279e-06      -1.57076584e-05 
      -1.83505519e-07       8.88554249e-06      -1.67754979e-05 
      -5.94759641e-07       8.88554191e-06      -1.67793078e-05 
       1.81775588e-07       8.88935397e-06      -1.67793099e-05 
       5.93029710e-07       8.88935456e-06      -1.67755000e-05 
      -1.83505519e-07       8.88554249e-06      -1.67754979e-05 
      -5.94759641e-07       8.88554191e-06      -1.67793078e-05 
       1.81775588e-07       8.88935397e-06      -1.67793099e-05 
       5.93029710e-07       8.88935456e-06      -1.67755000e-05 
      -1.87991323e-07       9.46521523e-06      -1.78701171e-05 
      -6.09264798e-07       9.46521462e-06      -1.78740459e-05 
       1.86219512e-07       9.46914575e-06      -1.78740481e-05 
       6.07492987e-07       9.46914637e-06      -1.78701193e-05 
      -1.87991323e-07       9.46521523e-06      -1.78701171e-05 
      -6.09264798e-07       9.46521462e-06      -1.78740459e-05 
       1.86219512e-07       9.46914575e-06      -1.78740481e-05 
       6.07492987e-07       9.46914637e-06      -1.78701193e-05 
      -1.92346676e-07       1.00586343e-05      -1.89907364e-05 
      -6.23342411e-07       1.00586336e-05      -1.89947842e-05 
       1.90532655e-07       1.00626838e-05      -1.89947865e-05 
       6.21528389e-07       1.00626845e-05      -1.89907387e-05 
      -1.92346676e-07       1.00586343e-05      -1.89907364e-05 
      -6.23342410e-07       1.00586336e-05      -1.89947842e-05 
       1.90532655e-07       1.00626838e-05      -1.89947865e-05 
       6.21528389e-07       1.00626845e-05      -1.89907387e-05 
      -1.96574016e-07       1.06654032e-05      -2.01366043e-05 
      -6.37015101e-07       1.06654025e-05      -2.01407551e-05 
       1.94730970e-07       1.06695559e-05      -2.01407575e-05 
       6.35172055e-07       1.06695566e-05      -2.01366067e-05 
      -1.96574016e-07       1.06654032e-05      -2.01366043e-05 
      -6.37015101e-07       1.06654025e-05      -2.01407551e-05 
       1.94730970e-07       1.06695559e-05      -2.01407575e-05 
       6.35172055e-07       1.06695566e-05      -2.01366067e-05 
      -2.00688733e-07       1.12851470e-05      -2.13070238e-05 
      -6.50318244e-07       1.12851463e-05      -2.13112776e-05 
       1.98816271e-07       1.12894028e-05      -2.13112801e-05 
       6.48445782e-07       1.12894035e-05      -2.13070263e-05 
      -2.00688733e-07       1.12851470e-05      -2.13070238e-05 
      -6.50318244e-07       1.12851463e-05      -2.13112776e-05 
       1.98816271e-07       1.12894028e-05      -2.13112801e-05 
       6.48445782e-07       1.12894035e-05      -2.13070263e-05 
      -2.04690822e-07       1.19175080e-05      -2.25013228e-05 
      -6.63251830e-07       1.19175072e-05      -2.25056796e-05 
       2.02788564e-07       1.19218669e-05      -2.25056822e-05 
       6.61349572e-07       1.19218676e-05      -2.25013254e-05 
      -2.04690822e-07       1.19175080e-05      -2.25013228e-05 
      -6.63251830e-07       1.19175072e-05      -2.25056796e-05 
       2.02788564e-07       1.19218669e-05      -2.25056822e-05 
       6.61349572e-07       1.19218676e-05      -2.25013254e-05 
      -2.08580279e-07       1.25621282e-05      -2.37188292e-05 
      -6.75815859e-07       1.25621274e-05      -2.37232891e-05 
       2.06647852e-07       1.25665902e-05      -2.37232918e-05 
       6.73883432e-07       1.25665910e-05      -2.37188319e-05 
      -2.08580279e-07       1.25621282e-05      -2.37188292e-05 
      -6.75815859e-07       1.25621274e-05      -2.37232891e-05 
       2.06647852e-07       1.25665902e-05      -2.37232918e-05 
       6.73883432e-07       1.25665910e-05      -2.37188319e-05 
      -2.12357098e-07       1.32186499e-05      -2.49588711e-05 
      -6.88010322e-07       1.32186491e-05      -2.49634340e-05 
       2.10394142e-07       1.32232151e-05      -2.49634368e-05 
       6.86047366e-07       1.32232158e-05      -2.49588739e-05 
      -2.12357098e-07       1.32186499e-05      -2.49588711e-05 
      -6.88010322e-07       1.32186491e-05      -2.49634340e-05 
       2.10394142e-07       1.32232151e-05      -2.49634368e-05 
       6.86047366e-07       1.32232158e-05      -2.49588739e-05 
      -2.16021274e-07       1.38867153e-05      -2.62207764e-05 
      -6.99835216e-07       1.38867145e-05      -2.62254424e-05 
       2.14027439e-07       1.38913836e-05      -2.62254453e-05 
       6.97841381e-07       1.38913844e-05      -2.62207793e-05 
      -2.16021274e-07       1.38867153e-05      -2.62207764e-05 
      -6.99835216e-07       1.38867145e-05      -2.62254424e-05 
       2.14027439e-07       1.38913836e-05      -2.62254453e-05 
       6.97841381e-07       1.38913844e-05      -2.62207793e-05 
      -2.19572800e-07       1.45659666e-05      -2.75038731e-05 
      -7.11290534e-07       1.45659657e-05      -2.75086421e-05 
       2.17547749e-07       1.45707380e-05      -2.75086451e-05 
       7.09265482e-07       1.45707388e-05      -2.75038761e-05 
      -2.19572800e-07       1.45659666e-05      -2.75038731e-05 
      -7.11290534e-07       1.45659657e-05      -2.75086421e-05 
       2.17547749e-07       1.45707380e-05      -2.75086451e-05 
       7.09265482e-07       1.45707388e-05      -2.75038761e-05 
      -2.23011671e-07       1.52560459e-05      -2.88074891e-05 
      -7.22376269e-07       1.52560451e-05      -2.88123612e-05 
       2.20955078e-07       1.52609205e-05      -2.88123643e-05 
       7.20319675e-07       1.52609213e-05      -2.88074922e-05 
      -2.23011671e-07       1.52560459e-05      -2.88074891e-05 
      -7.22376269e-07       1.52560451e-05      -2.88123612e-05 