# vtk DataFile Version 2.0
./output/onsasExample_nonLinearCantileverBlade_staitc3D_no_pitch numElements=10/onsasExample_nonLinearCantileverBlade_staitc3D_no_pitch numElements=10_0005.vtk
ASCII
DATASET UNSTRUCTURED_GRID

POINTS 800 float
       7.531836e-26      -7.180703e-02      -7.180703e-02 
       7.531836e-26       7.180703e-02      -7.180703e-02 
      -7.531836e-26       7.180703e-02       7.180703e-02 
      -7.531836e-26      -7.180703e-02       7.180703e-02 
       1.000000e-01      -7.180703e-02      -7.180703e-02 
       1.000000e-01       7.180703e-02      -7.180703e-02 
       1.000000e-01       7.180703e-02       7.180703e-02 
       1.000000e-01      -7.180703e-02       7.180703e-02 
       1.000000e-01      -7.180703e-02      -7.180703e-02 
       1.000000e-01       7.180703e-02      -7.180703e-02 
       1.000000e-01       7.180703e-02       7.180703e-02 
       1.000000e-01      -7.180703e-02       7.180703e-02 
       2.000000e-01      -7.180703e-02      -7.180703e-02 
       2.000000e-01       7.180703e-02      -7.180703e-02 
       2.000000e-01       7.180703e-02       7.180703e-02 
       2.000000e-01      -7.180703e-02       7.180703e-02 
       2.000000e-01      -7.180703e-02      -7.180703e-02 
       2.000000e-01       7.180703e-02      -7.180703e-02 
       2.000000e-01       7.180703e-02       7.180703e-02 
       2.000000e-01      -7.180703e-02       7.180703e-02 
       3.000000e-01      -7.180703e-02      -7.180703e-02 
       3.000000e-01       7.180703e-02      -7.180703e-02 
       3.000000e-01       7.180703e-02       7.180703e-02 
       3.000000e-01      -7.180703e-02       7.180703e-02 
       3.000000e-01      -7.180703e-02      -7.180703e-02 
       3.000000e-01       7.180703e-02      -7.180703e-02 
       3.000000e-01       7.180703e-02       7.180703e-02 
       3.000000e-01      -7.180703e-02       7.180703e-02 
       4.000000e-01      -7.180703e-02      -7.180703e-02 
       4.000000e-01       7.180703e-02      -7.180703e-02 
       4.000000e-01       7.180703e-02       7.180704e-02 
       4.000000e-01      -7.180703e-02       7.180704e-02 
       4.000000e-01      -7.180703e-02      -7.180703e-02 
       4.000000e-01       7.180703e-02      -7.180703e-02 
       4.000000e-01       7.180703e-02       7.180704e-02 
       4.000000e-01      -7.180703e-02       7.180704e-02 
       5.000000e-01      -7.180703e-02      -7.180703e-02 
       5.000000e-01       7.180703e-02      -7.180703e-02 
       5.000000e-01       7.180703e-02       7.180704e-02 
       5.000000e-01      -7.180703e-02       7.180704e-02 
       5.000000e-01      -7.180703e-02      -7.180703e-02 
       5.000000e-01       7.180703e-02      -7.180703e-02 
       5.000000e-01       7.180703e-02       7.180704e-02 
       5.000000e-01      -7.180703e-02       7.180704e-02 
       6.000000e-01      -7.180703e-02      -7.180703e-02 
       6.000000e-01       7.180703e-02      -7.180703e-02 
       6.000000e-01       7.180703e-02       7.180704e-02 
       6.000000e-01      -7.180703e-02       7.180704e-02 
       6.000000e-01      -7.180703e-02      -7.180703e-02 
       6.000000e-01       7.180703e-02      -7.180703e-02 
       6.000000e-01       7.180703e-02       7.180704e-02 
       6.000000e-01      -7.180703e-02       7.180704e-02 
       7.000000e-01      -7.180703e-02      -7.180702e-02 
       7.000000e-01       7.180703e-02      -7.180702e-02 
       7.000000e-01       7.180703e-02       7.180704e-02 
       7.000000e-01      -7.180703e-02       7.180704e-02 
       7.000000e-01      -7.180703e-02      -7.180702e-02 
       7.000000e-01       7.180703e-02      -7.180702e-02 
       7.000000e-01       7.180703e-02       7.180704e-02 
       7.000000e-01      -7.180703e-02       7.180704e-02 
       8.000000e-01      -7.180703e-02      -7.180702e-02 
       8.000000e-01       7.180703e-02      -7.180702e-02 
       8.000000e-01       7.180703e-02       7.180705e-02 
       8.000000e-01      -7.180703e-02       7.180705e-02 
       8.000000e-01      -7.180703e-02      -7.180702e-02 
       8.000000e-01       7.180703e-02      -7.180702e-02 
       8.000000e-01       7.180703e-02       7.180705e-02 
       8.000000e-01      -7.180703e-02       7.180705e-02 
       9.000000e-01      -7.180703e-02      -7.180702e-02 
       9.000000e-01       7.180703e-02      -7.180702e-02 
       9.000000e-01       7.180703e-02       7.180705e-02 
       9.000000e-01      -7.180703e-02       7.180705e-02 
       9.000000e-01      -7.180703e-02      -7.180702e-02 
       9.000000e-01       7.180703e-02      -7.180702e-02 
       9.000000e-01       7.180703e-02       7.180705e-02 
       9.000000e-01      -7.180703e-02       7.180705e-02 
       1.000000e+00      -7.180703e-02      -7.180701e-02 
       1.000000e+00       7.180703e-02      -7.180701e-02 
       1.000000e+00       7.180703e-02       7.180705e-02 
       1.000000e+00      -7.180703e-02       7.180705e-02 
       1.000000e+00      -7.180703e-02      -7.180701e-02 
       1.000000e+00       7.180703e-02      -7.180701e-02 
       1.000000e+00       7.180703e-02       7.180705e-02 
       1.000000e+00      -7.180703e-02       7.180705e-02 
       1.100000e+00      -7.180703e-02      -7.180701e-02 
       1.100000e+00       7.180703e-02      -7.180701e-02 
       1.100000e+00       7.180703e-02       7.180706e-02 
       1.100000e+00      -7.180703e-02       7.180706e-02 
       1.100000e+00      -7.180703e-02      -7.180701e-02 
       1.100000e+00       7.180703e-02      -7.180701e-02 
       1.100000e+00       7.180703e-02       7.180706e-02 
       1.100000e+00      -7.180703e-02       7.180706e-02 
       1.200000e+00      -7.180703e-02      -7.180700e-02 
       1.200000e+00       7.180703e-02      -7.180700e-02 
       1.200000e+00       7.180703e-02       7.180706e-02 
       1.200000e+00      -7.180703e-02       7.180706e-02 
       1.200000e+00      -7.180703e-02      -7.180700e-02 
       1.200000e+00       7.180703e-02      -7.180700e-02 
       1.200000e+00       7.180703e-02       7.180706e-02 
       1.200000e+00      -7.180703e-02       7.180706e-02 
       1.300000e+00      -7.180703e-02      -7.180700e-02 
       1.300000e+00       7.180703e-02      -7.180700e-02 
       1.300000e+00       7.180703e-02       7.180707e-02 
       1.300000e+00      -7.180703e-02       7.180707e-02 
       1.300000e+00      -7.180703e-02      -7.180700e-02 
       1.300000e+00       7.180703e-02      -7.180700e-02 
       1.300000e+00       7.180703e-02       7.180707e-02 
       1.300000e+00      -7.180703e-02       7.180707e-02 
       1.400000e+00      -7.180703e-02      -7.180699e-02 
       1.400000e+00       7.180703e-02      -7.180699e-02 
       1.400000e+00       7.180703e-02       7.180707e-02 
       1.400000e+00      -7.180703e-02       7.180707e-02 
       1.400000e+00      -7.180703e-02      -7.180699e-02 
       1.400000e+00       7.180703e-02      -7.180699e-02 
       1.400000e+00       7.180703e-02       7.180707e-02 
       1.400000e+00      -7.180703e-02       7.180707e-02 
       1.500000e+00      -7.180703e-02      -7.180699e-02 
       1.500000e+00       7.180703e-02      -7.180699e-02 
       1.500000e+00       7.180703e-02       7.180708e-02 
       1.500000e+00      -7.180703e-02       7.180708e-02 
       1.500000e+00      -7.180703e-02      -7.180699e-02 
       1.500000e+00       7.180703e-02      -7.180699e-02 
       1.500000e+00       7.180703e-02       7.180708e-02 
       1.500000e+00      -7.180703e-02       7.180708e-02 
       1.600000e+00      -7.180703e-02      -7.180698e-02 
       1.600000e+00       7.180703e-02      -7.180698e-02 
       1.600000e+00       7.180703e-02       7.180708e-02 
       1.600000e+00      -7.180703e-02       7.180708e-02 
       1.600000e+00      -7.180703e-02      -7.180698e-02 
       1.600000e+00       7.180703e-02      -7.180698e-02 
       1.600000e+00       7.180703e-02       7.180708e-02 
       1.600000e+00      -7.180703e-02       7.180708e-02 
       1.700000e+00      -7.180703e-02      -7.180698e-02 
       1.700000e+00       7.180703e-02      -7.180698e-02 
       1.700000e+00       7.180703e-02       7.180709e-02 
       1.700000e+00      -7.180703e-02       7.180709e-02 
       1.700000e+00      -7.180703e-02      -7.180698e-02 
       1.700000e+00       7.180703e-02      -7.180698e-02 
       1.700000e+00       7.180703e-02       7.180709e-02 
       1.700000e+00      -7.180703e-02       7.180709e-02 
       1.800000e+00      -7.180703e-02      -7.180697e-02 
       1.800000e+00       7.180703e-02      -7.180697e-02 
       1.800000e+00       7.180703e-02       7.180709e-02 
       1.800000e+00      -7.180703e-02       7.180709e-02 
       1.800000e+00      -7.180703e-02      -7.180697e-02 
       1.800000e+00       7.180703e-02      -7.180697e-02 
       1.800000e+00       7.180703e-02       7.180709e-02 
       1.800000e+00      -7.180703e-02       7.180709e-02 
       1.900000e+00      -7.180703e-02      -7.180696e-02 
       1.900000e+00       7.180703e-02      -7.180696e-02 
       1.900000e+00       7.180703e-02       7.180710e-02 
       1.900000e+00      -7.180703e-02       7.180710e-02 
       1.900000e+00      -7.180703e-02      -7.180696e-02 
       1.900000e+00       7.180703e-02      -7.180696e-02 
       1.900000e+00       7.180703e-02       7.180710e-02 
       1.900000e+00      -7.180703e-02       7.180710e-02 
       2.000000e+00      -7.180703e-02      -7.180696e-02 
       2.000000e+00       7.180703e-02      -7.180696e-02 
       2.000000e+00       7.180703e-02       7.180711e-02 
       2.000000e+00      -7.180703e-02       7.180711e-02 
       2.000000e+00      -7.180703e-02      -7.180696e-02 
       2.000000e+00       7.180703e-02      -7.180696e-02 
       2.000000e+00       7.180703e-02       7.180711e-02 
       2.000000e+00      -7.180703e-02       7.180711e-02 
       2.100000e+00      -7.180703e-02      -7.180695e-02 
[...]
POINT_DATA       800 
VECTORS Displacements float
       7.53183642e-26       0.00000000e+00       0.00000000e+00 
       7.53183642e-26       0.00000000e+00       0.00000000e+00 
      -7.53183642e-26       0.00000000e+00       0.00000000e+00 
      -7.53183642e-26       0.00000000e+00       0.00000000e+00 
       3.07428666e-10       1.58170699e-12       2.13172230e-10 
       3.02900066e-10       1.58170699e-12       2.13172244e-10 
      -3.07436035e-10       1.58170699e-12       2.13172244e-10 
      -3.02907435e-10       1.58170699e-12       2.13172230e-10 
       3.07428666e-10       1.58170699e-12       2.13172230e-10 
       3.02900066e-10       1.58170699e-12       2.13172244e-10 
      -3.07436035e-10       1.58170699e-12       2.13172244e-10 
      -3.02907435e-10       1.58170699e-12       2.13172230e-10 
       6.08950168e-10       6.28642971e-12       8.47245066e-10 
       5.99979955e-10       6.28642971e-12       8.47245080e-10 
      -6.08964906e-10       6.28642971e-12       8.47245066e-10 
      -5.99994693e-10       6.28642971e-12       8.47245052e-10 
       6.08950168e-10       6.28642971e-12       8.47245066e-10 
       5.99979955e-10       6.28642971e-12       8.47245080e-10 
      -6.08964906e-10       6.28642971e-12       8.47245066e-10 
      -5.99994693e-10       6.28642971e-12       8.47245052e-10 
       9.04564534e-10       1.40535777e-11       1.89405258e-09 
       8.91239749e-10       1.40535777e-11       1.89405258e-09 
      -9.04586572e-10       1.40535777e-11       1.89405257e-09 
      -8.91261787e-10       1.40535777e-11       1.89405257e-09 
       9.04564534e-10       1.40535777e-11       1.89405258e-09 
       8.91239749e-10       1.40535777e-11       1.89405258e-09 
      -9.04586572e-10       1.40535777e-11       1.89405257e-09 
      -8.91261787e-10       1.40535777e-11       1.89405257e-09 
       1.19427157e-09       2.48225884e-11       3.34542893e-09 
       1.17667925e-09       2.48225884e-11       3.34542893e-09 
      -1.19430110e-09       2.48225884e-11       3.34542891e-09 
      -1.17670879e-09       2.48225884e-11       3.34542891e-09 
       1.19427157e-09       2.48225884e-11       3.34542893e-09 
       1.17667925e-09       2.48225884e-11       3.34542893e-09 
      -1.19430110e-09       2.48225884e-11       3.34542891e-09 
      -1.17670879e-09       2.48225884e-11       3.34542891e-09 
       1.47807144e-09       3.85328297e-11       5.19320825e-09 
       1.45629875e-09       3.85328297e-11       5.19320825e-09 
      -1.47810841e-09       3.85328297e-11       5.19320821e-09 
      -1.45633550e-09       3.85328297e-11       5.19320822e-09 
       1.47807144e-09       3.85328297e-11       5.19320825e-09 
       1.45629875e-09       3.85328297e-11       5.19320825e-09 
      -1.47810841e-09       3.85328297e-11       5.19320821e-09 
      -1.45633550e-09       3.85328297e-11       5.19320822e-09 
       1.75596426e-09       5.51237250e-11       7.42922464e-09 
       1.73009795e-09       5.51237250e-11       7.42922464e-09 
      -1.75600845e-09       5.51237250e-11       7.42922458e-09 
      -1.73014214e-09       5.51237250e-11       7.42922460e-09 
       1.75596426e-09       5.51237250e-11       7.42922464e-09 
       1.73009795e-09       5.51237250e-11       7.42922464e-09 
      -1.75600845e-09       5.51237250e-11       7.42922458e-09 
      -1.73014214e-09       5.51237250e-11       7.42922460e-09 
       2.02794992e-09       7.45346979e-11       1.00453122e-08 
       1.99807704e-09       7.45346979e-11       1.00453122e-08 
      -2.02800143e-09       7.45346979e-11       1.00453122e-08 
      -1.99812855e-09       7.45346979e-11       1.00453122e-08 
       2.02794992e-09       7.45346979e-11       1.00453122e-08 
       1.99807704e-09       7.45346979e-11       1.00453122e-08 
      -2.02800143e-09       7.45346979e-11       1.00453122e-08 
      -1.99812855e-09       7.45346979e-11       1.00453122e-08 
       2.29402808e-09       9.67051578e-11       1.30333052e-08 
       2.26023578e-09       9.67051578e-11       1.30333052e-08 
      -2.29408748e-09       9.67051578e-11       1.30333051e-08 
      -2.26029517e-09       9.67051578e-11       1.30333051e-08 
       2.29402808e-09       9.67051578e-11       1.30333052e-08 
       2.26023578e-09       9.67051578e-11       1.30333052e-08 
      -2.29408748e-09       9.67051578e-11       1.30333051e-08 
      -2.26029517e-09       9.67051578e-11       1.30333051e-08 
       2.55419930e-09       1.21574500e-10       1.63850376e-08 
       2.51657450e-09       1.21574500e-10       1.63850376e-08 
      -2.55426613e-09       1.21574500e-10       1.63850375e-08 
      -2.51664134e-09       1.21574500e-10       1.63850375e-08 
       2.55419930e-09       1.21574500e-10       1.63850376e-08 
       2.51657450e-09       1.21574500e-10       1.63850376e-08 
      -2.55426613e-09       1.21574500e-10       1.63850375e-08 
      -2.51664134e-09       1.21574500e-10       1.63850375e-08 
       2.80846346e-09       1.49082163e-10       2.00923436e-08 
       2.76709300e-09       1.49082163e-10       2.00923436e-08 
      -2.80853751e-09       1.49082163e-10       2.00923435e-08 
      -2.76716727e-09       1.49082163e-10       2.00923435e-08 
       2.80846346e-09       1.49082177e-10       2.00923436e-08 
       2.76709300e-09       1.49082149e-10       2.00923436e-08 
      -2.80853751e-09       1.49082149e-10       2.00923435e-08 
      -2.76716727e-09       1.49082177e-10       2.00923435e-08 
       3.05713233e-09       1.79168597e-10       2.41472006e-08 
       3.01209901e-09       1.79168583e-10       2.41472006e-08 
      -3.05721159e-09       1.79168583e-10       2.41472005e-08 
      -3.01217828e-09       1.79168597e-10       2.41472005e-08 
       3.05713233e-09       1.79168597e-10       2.41472006e-08 
       3.01209901e-09       1.79168583e-10       2.41472006e-08 
      -3.05721159e-09       1.79168583e-10       2.41472005e-08 
      -3.01217828e-09       1.79168597e-10       2.41472005e-08 
       3.30051608e-09       2.11778525e-10       2.85421590e-08 
       3.25189764e-09       2.11778511e-10       2.85421590e-08 
      -3.30060002e-09       2.11778511e-10       2.85421589e-08 
      -3.25198135e-09       2.11778525e-10       2.85421589e-08 
       3.30051608e-09       2.11778525e-10       2.85421590e-08 
       3.25189764e-09       2.11778511e-10       2.85421590e-08 
      -3.30060002e-09       2.11778511e-10       2.85421589e-08 
      -3.25198135e-09       2.11778525e-10       2.85421589e-08 
       3.53861429e-09       2.46857743e-10       3.32699125e-08 
       3.48648843e-09       2.46857729e-10       3.32699125e-08 
      -3.53870333e-09       2.46857729e-10       3.32699124e-08 
      -3.48657747e-09       2.46857743e-10       3.32699124e-08 
       3.53861429e-09       2.46857743e-10       3.32699125e-08 
       3.48648843e-09       2.46857729e-10       3.32699125e-08 
      -3.53870333e-09       2.46857729e-10       3.32699124e-08 
      -3.48657747e-09       2.46857743e-10       3.32699124e-08 
       3.77142739e-09       2.84352042e-10       3.83231549e-08 
       3.71587205e-09       2.84352028e-10       3.83231549e-08 
      -3.77152087e-09       2.84352028e-10       3.83231547e-08 
      -3.71596554e-09       2.84352042e-10       3.83231547e-08 
       3.77142739e-09       2.84352042e-10       3.83231549e-08 
       3.71587205e-09       2.84352028e-10       3.83231549e-08 
      -3.77152087e-09       2.84352028e-10       3.83231547e-08 
      -3.71596554e-09       2.84352042e-10       3.83231547e-08 
       3.99895450e-09       3.24207189e-10       4.36945797e-08 
       3.94004762e-09       3.24207175e-10       4.36945797e-08 
      -3.99905353e-09       3.24207175e-10       4.36945794e-08 
      -3.94014665e-09       3.24207189e-10       4.36945795e-08 
       3.99895450e-09       3.24207189e-10       4.36945797e-08 
       3.94004762e-09       3.24207175e-10       4.36945797e-08 
      -3.99905353e-09       3.24207175e-10       4.36945794e-08 
      -3.94014665e-09       3.24207189e-10       4.36945795e-08 
       4.22119673e-09       3.66369018e-10       4.93768807e-08 
       4.15901602e-09       3.66369005e-10       4.93768807e-08 
      -4.22130086e-09       3.66369005e-10       4.93768804e-08 
      -4.15912016e-09       3.66369018e-10       4.93768804e-08 
       4.22119673e-09       3.66369018e-10       4.93768807e-08 
       4.15901602e-09       3.66369005e-10       4.93768807e-08 
      -4.22130086e-09       3.66369005e-10       4.93768804e-08 
      -4.15912016e-09       3.66369018e-10       4.93768804e-08 
       4.43815362e-09       4.10783282e-10       5.53627516e-08 
       4.37277703e-09       4.10783269e-10       5.53627516e-08 
      -4.43826242e-09       4.10783255e-10       5.53627513e-08 
      -4.37288583e-09       4.10783282e-10       5.53627513e-08 
       4.43815362e-09       4.10783282e-10       5.53627516e-08 
       4.37277703e-09       4.10783269e-10       5.53627516e-08 
      -4.43826242e-09       4.10783255e-10       5.53627513e-08 
      -4.37288583e-09       4.10783282e-10       5.53627513e-08 
       4.64982475e-09       4.57395760e-10       6.16448860e-08 
       4.58133020e-09       4.57395746e-10       6.16448860e-08 
      -4.64993888e-09       4.57395746e-10       6.16448857e-08 
      -4.58144434e-09       4.57395760e-10       6.16448858e-08 
       4.64982475e-09       4.57395760e-10       6.16448860e-08 
       4.58133020e-09       4.57395746e-10       6.16448860e-08 
      -4.64993888e-09       4.57395746e-10       6.16448857e-08 
      -4.58144434e-09       4.57395760e-10       6.16448858e-08 
       4.85621077e-09       5.06152273e-10       6.82159778e-08 
       4.78467599e-09       5.06152259e-10       6.82159778e-08 
      -4.85633000e-09       5.06152259e-10       6.82159774e-08 
      -4.78479523e-09       5.06152273e-10       6.82159775e-08 
       4.85621077e-09       5.06152273e-10       6.82159778e-08 
       4.78467599e-09       5.06152259e-10       6.82159778e-08 
      -4.85633000e-09       5.06152259e-10       6.82159774e-08 
      -4.78479523e-09       5.06152273e-10       6.82159775e-08 
       5.05731101e-09       5.56998586e-10       7.50687205e-08 
       4.98281416e-09       5.56998572e-10       7.50687205e-08 
      -5.05743580e-09       5.56998572e-10       7.50687201e-08 
      -4.98293873e-09       5.56998586e-10       7.50687201e-08 
       5.05731146e-09       5.56998558e-10       7.50687205e-08 
       4.98281416e-09       5.56998586e-10       7.50687205e-08 
      -5.05743580e-09       5.56998586e-10       7.50687201e-08 
      -4.98293851e-09       5.56998558e-10       7.50687201e-08 
       5.25343813e-09       6.09881520e-10       8.21959511e-08 
       5.17605203e-09       6.09881562e-10       8.21959511e-08 
      -5.25356603e-09       6.09881562e-10       8.21959507e-08 
      -5.17617993e-09       6.09881520e-10       8.21959507e-08 
       5.25343813e-09       6.09881520e-10       8.21959511e-08 
       5.17605203e-09       6.09881562e-10       8.21959511e-08 
      -5.25356603e-09       6.09881562e-10       8.21959507e-08 
      -5.17617993e-09       6.09881520e-10       8.21959507e-08 
       5.44490142e-09       6.64752267e-10       8.95910796e-08 
       5.36469491e-09       6.64752295e-10       8.95910796e-08 
      -5.44503287e-09       6.64752295e-10       8.95910792e-08 
      -5.36482636e-09       6.64752267e-10       8.95910792e-08 
       5.44490142e-09       6.64752267e-10       8.95910796e-08 
       5.36469491e-09       6.64752295e-10       8.95910796e-08 
      -5.44503287e-09       6.64752295e-10       8.95910792e-08 
      -5.36482636e-09       6.64752267e-10       8.95910792e-08 
       5.63170177e-09       7.21562934e-10       9.72476593e-08 
       5.54874369e-09       7.21562962e-10       9.72476593e-08 
      -5.63183589e-09       7.21562962e-10       9.72476589e-08 
      -5.54887780e-09       7.21562934e-10       9.72476589e-08 
       5.63170177e-09       7.21562934e-10       9.72476593e-08 
       5.54874369e-09       7.21562962e-10       9.72476593e-08 
      -5.63183589e-09       7.21562962e-10       9.72476589e-08 
      -5.54887780e-09       7.21562934e-10       9.72476589e-08 
       5.81383786e-09       7.80265699e-10       1.05159243e-07 
       5.72819703e-09       7.80265727e-10       1.05159243e-07 
      -5.81397597e-09       7.80265727e-10       1.05159243e-07 
      -5.72833470e-09       7.80265699e-10       1.05159243e-07 
       5.81383786e-09       7.80265699e-10       1.05159243e-07 
       5.72819703e-09       7.80265727e-10       1.05159243e-07 
      -5.81397597e-09       7.80265727e-10       1.05159243e-07 
      -5.72833470e-09       7.80265699e-10       1.05159243e-07 
       5.99131056e-09       8.40812725e-10       1.13319385e-07 
       5.90305493e-09       8.40812753e-10       1.13319385e-07 
      -5.99145222e-09       8.40812753e-10       1.13319385e-07 
      -5.90319660e-09       8.40812725e-10       1.13319385e-07 
       5.99131056e-09       8.40812725e-10       1.13319385e-07 
       5.90305493e-09       8.40812753e-10       1.13319385e-07 
      -5.99145222e-09       8.40812753e-10       1.13319385e-07 
      -5.90319660e-09       8.40812725e-10       1.13319385e-07 
       6.16411944e-09       9.03156161e-10       1.21721638e-07 
       6.07331829e-09       9.03156203e-10       1.21721638e-07 
      -6.16426510e-09       9.03156203e-10       1.21721638e-07 
      -6.07346395e-09       9.03156161e-10       1.21721638e-07 
       6.16411944e-09       9.03156161e-10       1.21721638e-07 
       6.07331829e-09       9.03156203e-10       1.21721638e-07 
      -6.16426510e-09       9.03156203e-10       1.21721638e-07 
      -6.07346395e-09       9.03156161e-10       1.21721638e-07 
       6.33226493e-09       9.67248212e-10       1.30359555e-07 
       6.23898710e-09       9.67248240e-10       1.30359555e-07 
      -6.33241415e-09       9.67248240e-10       1.30359554e-07 
      -6.23913632e-09       9.67248212e-10       1.30359555e-07 
       6.33226493e-09       9.67248212e-10       1.30359555e-07 
       6.23898710e-09       9.67248240e-10       1.30359555e-07 
      -6.33241415e-09       9.67248240e-10       1.30359554e-07 
      -6.23913632e-09       9.67248212e-10       1.30359555e-07 
       6.49574705e-09       1.03304101e-09       1.39226689e-07 
       6.40006093e-09       1.03304104e-09       1.39226689e-07 
      -6.49589937e-09       1.03304104e-09       1.39226689e-07 
      -6.40021325e-09       1.03304101e-09       1.39226689e-07 
       6.49574705e-09       1.03304101e-09       1.39226689e-07 
       6.40006093e-09       1.03304104e-09       1.39226689e-07 
      -6.49589937e-09       1.03304104e-09       1.39226689e-07 
      -6.40021325e-09       1.03304101e-09       1.39226689e-07 
       6.65456534e-09       1.10048673e-09       1.48316595e-07 
       6.55653976e-09       1.10048676e-09       1.48316595e-07 
      -6.65472122e-09       1.10048676e-09       1.48316594e-07 
      -6.55669607e-09       1.10048673e-09       1.48316594e-07 
       6.65456534e-09       1.10048673e-09       1.48316595e-07 
       6.55653976e-09       1.10048676e-09       1.48316595e-07 
      -6.65472122e-09       1.10048676e-09       1.48316594e-07 
      -6.55669607e-09       1.10048673e-09       1.48316594e-07 
       6.80871981e-09       1.16953755e-09       1.57622824e-07 
       6.70842404e-09       1.16953758e-09       1.57622824e-07 
      -6.80888013e-09       1.16953758e-09       1.57622823e-07 
      -6.70858391e-09       1.16953755e-09       1.57622823e-07 
       6.80872025e-09       1.16953756e-09       1.57622824e-07 
       6.70842359e-09       1.16953756e-09       1.57622824e-07 
      -6.80888013e-09       1.16953756e-09       1.57622823e-07 
      -6.70858347e-09       1.16953756e-09       1.57622823e-07 
       6.95852265e-09       1.24014669e-09       1.67139073e-07 
       6.85601975e-09       1.24014669e-09       1.67139073e-07 
      -6.95868518e-09       1.24014669e-09       1.67139073e-07 
      -6.85618229e-09       1.24014669e-09       1.67139073e-07 
       6.95852265e-09       1.24014669e-09       1.67139073e-07 
       6.85601975e-09       1.24014669e-09       1.67139073e-07 
      -6.95868518e-09       1.24014669e-09       1.67139073e-07 
      -6.85618229e-09       1.24014669e-09       1.67139073e-07 
       7.10428383e-09       1.31227164e-09       1.76859613e-07 
       6.99963332e-09       1.31227164e-09       1.76859613e-07 
      -7.10444903e-09       1.31227164e-09       1.76859613e-07 
      -6.99979852e-09       1.31227164e-09       1.76859613e-07 
       7.10428383e-09       1.31227164e-09       1.76859613e-07 
       6.99963332e-09       1.31227164e-09       1.76859613e-07 
      -7.10444903e-09       1.31227164e-09       1.76859613e-07 
      -6.99979852e-09       1.31227164e-09       1.76859613e-07 
       7.24600291e-09       1.38587092e-09       1.86778856e-07 
       7.13926518e-09       1.38587092e-09       1.86778856e-07 
      -7.24617033e-09       1.38587092e-09       1.86778855e-07 
      -7.13943260e-09       1.38587092e-09       1.86778855e-07 
       7.24600291e-09       1.38587092e-09       1.86778856e-07 
       7.13926518e-09       1.38587092e-09       1.86778856e-07 
      -7.24617033e-09       1.38587092e-09       1.86778855e-07 
      -7.13943260e-09       1.38587092e-09       1.86778855e-07 
       7.38368033e-09       1.46090311e-09       1.96891214e-07 
       7.27491445e-09       1.46090311e-09       1.96891214e-07 
      -7.38385042e-09       1.46090311e-09       1.96891213e-07 
      -7.27508453e-09       1.46090311e-09       1.96891213e-07 
       7.38368033e-09       1.46090311e-09       1.96891214e-07 
       7.27491445e-09       1.46090311e-09       1.96891214e-07 
      -7.38385042e-09       1.46090311e-09       1.96891213e-07 
      -7.27508453e-09       1.46090311e-09       1.96891213e-07 
       7.51731566e-09       1.53732670e-09       2.07191101e-07 
       7.40658157e-09       1.53732670e-09       2.07191101e-07 
      -7.51748885e-09       1.53732670e-09       2.07191100e-07 
      -7.40675432e-09       1.53732670e-09       2.07191100e-07 
       7.51731566e-09       1.53732670e-09       2.07191101e-07 
       7.40658157e-09       1.53732670e-09       2.07191101e-07 
      -7.51748885e-09       1.53732670e-09       2.07191100e-07 
      -7.40675432e-09       1.53732670e-09       2.07191100e-07 
       7.64690977e-09       1.61510028e-09       2.17672929e-07 
       7.53426610e-09       1.61510028e-09       2.17672929e-07 
      -7.64708563e-09       1.61510028e-09       2.17672928e-07 
      -7.53444196e-09       1.61510028e-09       2.17672929e-07 
       7.64690977e-09       1.61510028e-09       2.17672929e-07 
       7.53426610e-09       1.61510028e-09       2.17672929e-07 
      -7.64708563e-09       1.61510028e-09       2.17672928e-07 
      -7.53444196e-09       1.61510028e-09       2.17672929e-07 
       7.77246179e-09       1.69418239e-09       2.28331112e-07 
       7.65796893e-09       1.69418239e-09       2.28331112e-07 
      -7.77264031e-09       1.69418239e-09       2.28331111e-07 
      -7.65814745e-09       1.69418239e-09       2.28331111e-07 
       7.77246179e-09       1.69418239e-09       2.28331112e-07 
       7.65796893e-09       1.69418239e-09       2.28331112e-07 
      -7.77264031e-09       1.69418239e-09       2.28331111e-07 
      -7.65814745e-09       1.69418239e-09       2.28331111e-07 
       7.89397259e-09       1.77453156e-09       2.39160061e-07 
       7.77768960e-09       1.77453156e-09       2.39160061e-07 
      -7.89415289e-09       1.77453156e-09       2.39160060e-07 
      -7.77787035e-09       1.77453156e-09       2.39160060e-07 
       7.89397259e-09       1.77453156e-09       2.39160061e-07 
       7.77768960e-09       1.77453156e-09       2.39160061e-07 