# vtk DataFile Version 2.0
./output/onsasExample_nonLinearCantileverBlade_staitc3D_no_pitch numElements=10/onsasExample_nonLinearCantileverBlade_staitc3D_no_pitch numElements=10_0007.vtk
ASCII
DATASET UNSTRUCTURED_GRID

POINTS 800 float
      -2.584894e-25      -7.180703e-02      -7.180703e-02 
      -3.306184e-25       7.180703e-02      -7.180703e-02 
       2.584894e-25       7.180703e-02       7.180703e-02 
       3.306184e-25      -7.180703e-02       7.180703e-02 
       1.000000e-01      -7.180703e-02      -7.180703e-02 
       1.000000e-01       7.180703e-02      -7.180703e-02 
       1.000000e-01       7.180703e-02       7.180703e-02 
       1.000000e-01      -7.180703e-02       7.180703e-02 
       1.000000e-01      -7.180703e-02      -7.180703e-02 
       1.000000e-01       7.180703e-02      -7.180703e-02 
       1.000000e-01       7.180703e-02       7.180703e-02 
       1.000000e-01      -7.180703e-02       7.180703e-02 
       2.000000e-01      -7.180703e-02      -7.180703e-02 
       2.000000e-01       7.180703e-02      -7.180703e-02 
       2.000000e-01       7.180703e-02       7.180704e-02 
       2.000000e-01      -7.180703e-02       7.180704e-02 
       2.000000e-01      -7.180703e-02      -7.180703e-02 
       2.000000e-01       7.180703e-02      -7.180703e-02 
       2.000000e-01       7.180703e-02       7.180704e-02 
       2.000000e-01      -7.180703e-02       7.180704e-02 
       3.000000e-01      -7.180703e-02      -7.180703e-02 
       3.000000e-01       7.180703e-02      -7.180703e-02 
       3.000000e-01       7.180703e-02       7.180704e-02 
       3.000000e-01      -7.180703e-02       7.180704e-02 
       3.000000e-01      -7.180703e-02      -7.180703e-02 
       3.000000e-01       7.180703e-02      -7.180703e-02 
       3.000000e-01       7.180703e-02       7.180704e-02 
       3.000000e-01      -7.180703e-02       7.180704e-02 
       4.000000e-01      -7.180703e-02      -7.180703e-02 
       4.000000e-01       7.180703e-02      -7.180703e-02 
       4.000000e-01       7.180703e-02       7.180704e-02 
       4.000000e-01      -7.180703e-02       7.180704e-02 
       4.000000e-01      -7.180703e-02      -7.180703e-02 
       4.000000e-01       7.180703e-02      -7.180703e-02 
       4.000000e-01       7.180703e-02       7.180704e-02 
       4.000000e-01      -7.180703e-02       7.180704e-02 
       5.000000e-01      -7.180703e-02      -7.180702e-02 
       5.000000e-01       7.180703e-02      -7.180702e-02 
       5.000000e-01       7.180703e-02       7.180705e-02 
       5.000000e-01      -7.180703e-02       7.180705e-02 
       5.000000e-01      -7.180703e-02      -7.180702e-02 
       5.000000e-01       7.180703e-02      -7.180702e-02 
       5.000000e-01       7.180703e-02       7.180705e-02 
       5.000000e-01      -7.180703e-02       7.180705e-02 
       6.000000e-01      -7.180703e-02      -7.180702e-02 
       6.000000e-01       7.180703e-02      -7.180702e-02 
       6.000000e-01       7.180703e-02       7.180705e-02 
       6.000000e-01      -7.180703e-02       7.180705e-02 
       6.000000e-01      -7.180703e-02      -7.180702e-02 
       6.000000e-01       7.180703e-02      -7.180702e-02 
       6.000000e-01       7.180703e-02       7.180705e-02 
       6.000000e-01      -7.180703e-02       7.180705e-02 
       7.000000e-01      -7.180703e-02      -7.180701e-02 
       7.000000e-01       7.180703e-02      -7.180701e-02 
       7.000000e-01       7.180703e-02       7.180706e-02 
       7.000000e-01      -7.180703e-02       7.180706e-02 
       7.000000e-01      -7.180703e-02      -7.180701e-02 
       7.000000e-01       7.180703e-02      -7.180701e-02 
       7.000000e-01       7.180703e-02       7.180706e-02 
       7.000000e-01      -7.180703e-02       7.180706e-02 
       8.000000e-01      -7.180703e-02      -7.180700e-02 
       8.000000e-01       7.180703e-02      -7.180700e-02 
       8.000000e-01       7.180703e-02       7.180706e-02 
       8.000000e-01      -7.180703e-02       7.180706e-02 
       8.000000e-01      -7.180703e-02      -7.180700e-02 
       8.000000e-01       7.180703e-02      -7.180700e-02 
       8.000000e-01       7.180703e-02       7.180706e-02 
       8.000000e-01      -7.180703e-02       7.180706e-02 
       9.000000e-01      -7.180703e-02      -7.180699e-02 
       9.000000e-01       7.180703e-02      -7.180699e-02 
       9.000000e-01       7.180703e-02       7.180707e-02 
       9.000000e-01      -7.180703e-02       7.180707e-02 
       9.000000e-01      -7.180703e-02      -7.180699e-02 
       9.000000e-01       7.180703e-02      -7.180699e-02 
       9.000000e-01       7.180703e-02       7.180707e-02 
       9.000000e-01      -7.180703e-02       7.180707e-02 
       1.000000e+00      -7.180703e-02      -7.180699e-02 
       1.000000e+00       7.180703e-02      -7.180699e-02 
       1.000000e+00       7.180703e-02       7.180708e-02 
       1.000000e+00      -7.180703e-02       7.180708e-02 
       1.000000e+00      -7.180703e-02      -7.180699e-02 
       1.000000e+00       7.180703e-02      -7.180699e-02 
       1.000000e+00       7.180703e-02       7.180708e-02 
       1.000000e+00      -7.180703e-02       7.180708e-02 
       1.100000e+00      -7.180703e-02      -7.180698e-02 
       1.100000e+00       7.180703e-02      -7.180698e-02 
       1.100000e+00       7.180703e-02       7.180709e-02 
       1.100000e+00      -7.180703e-02       7.180709e-02 
       1.100000e+00      -7.180703e-02      -7.180698e-02 
       1.100000e+00       7.180703e-02      -7.180698e-02 
       1.100000e+00       7.180703e-02       7.180709e-02 
       1.100000e+00      -7.180703e-02       7.180709e-02 
       1.200000e+00      -7.180703e-02      -7.180697e-02 
       1.200000e+00       7.180703e-02      -7.180697e-02 
       1.200000e+00       7.180703e-02       7.180710e-02 
       1.200000e+00      -7.180703e-02       7.180710e-02 
       1.200000e+00      -7.180703e-02      -7.180697e-02 
       1.200000e+00       7.180703e-02      -7.180697e-02 
       1.200000e+00       7.180703e-02       7.180710e-02 
       1.200000e+00      -7.180703e-02       7.180710e-02 
       1.300000e+00      -7.180703e-02      -7.180695e-02 
       1.300000e+00       7.180703e-02      -7.180695e-02 
       1.300000e+00       7.180703e-02       7.180711e-02 
       1.300000e+00      -7.180703e-02       7.180711e-02 
       1.300000e+00      -7.180703e-02      -7.180695e-02 
       1.300000e+00       7.180703e-02      -7.180695e-02 
       1.300000e+00       7.180703e-02       7.180711e-02 
       1.300000e+00      -7.180703e-02       7.180711e-02 
       1.400000e+00      -7.180703e-02      -7.180694e-02 
       1.400000e+00       7.180703e-02      -7.180694e-02 
       1.400000e+00       7.180703e-02       7.180712e-02 
       1.400000e+00      -7.180703e-02       7.180712e-02 
       1.400000e+00      -7.180703e-02      -7.180694e-02 
       1.400000e+00       7.180703e-02      -7.180694e-02 
       1.400000e+00       7.180703e-02       7.180712e-02 
       1.400000e+00      -7.180703e-02       7.180712e-02 
       1.500000e+00      -7.180703e-02      -7.180693e-02 
       1.500000e+00       7.180703e-02      -7.180693e-02 
       1.500000e+00       7.180703e-02       7.180714e-02 
       1.500000e+00      -7.180703e-02       7.180714e-02 
       1.500000e+00      -7.180703e-02      -7.180693e-02 
       1.500000e+00       7.180703e-02      -7.180693e-02 
       1.500000e+00       7.180703e-02       7.180714e-02 
       1.500000e+00      -7.180703e-02       7.180714e-02 
       1.600000e+00      -7.180703e-02      -7.180692e-02 
       1.600000e+00       7.180703e-02      -7.180692e-02 
       1.600000e+00       7.180703e-02       7.180715e-02 
       1.600000e+00      -7.180703e-02       7.180715e-02 
       1.600000e+00      -7.180703e-02      -7.180692e-02 
       1.600000e+00       7.180703e-02      -7.180692e-02 
       1.600000e+00       7.180703e-02       7.180715e-02 
       1.600000e+00      -7.180703e-02       7.180715e-02 
       1.700000e+00      -7.180703e-02      -7.180690e-02 
       1.700000e+00       7.180703e-02      -7.180690e-02 
       1.700000e+00       7.180703e-02       7.180716e-02 
       1.700000e+00      -7.180703e-02       7.180716e-02 
       1.700000e+00      -7.180703e-02      -7.180690e-02 
       1.700000e+00       7.180703e-02      -7.180690e-02 
       1.700000e+00       7.180703e-02       7.180716e-02 
       1.700000e+00      -7.180703e-02       7.180716e-02 
       1.800000e+00      -7.180703e-02      -7.180689e-02 
       1.800000e+00       7.180703e-02      -7.180689e-02 
       1.800000e+00       7.180703e-02       7.180718e-02 
       1.800000e+00      -7.180703e-02       7.180718e-02 
       1.800000e+00      -7.180703e-02      -7.180689e-02 
       1.800000e+00       7.180703e-02      -7.180689e-02 
       1.800000e+00       7.180703e-02       7.180718e-02 
       1.800000e+00      -7.180703e-02       7.180718e-02 
       1.900000e+00      -7.180703e-02      -7.180687e-02 
       1.900000e+00       7.180703e-02      -7.180687e-02 
       1.900000e+00       7.180703e-02       7.180719e-02 
       1.900000e+00      -7.180703e-02       7.180719e-02 
       1.900000e+00      -7.180703e-02      -7.180687e-02 
       1.900000e+00       7.180703e-02      -7.180687e-02 
       1.900000e+00       7.180703e-02       7.180719e-02 
       1.900000e+00      -7.180703e-02       7.180719e-02 
       2.000000e+00      -7.180703e-02      -7.180686e-02 
       2.000000e+00       7.180703e-02      -7.180686e-02 
       2.000000e+00       7.180703e-02       7.180721e-02 
       2.000000e+00      -7.180703e-02       7.180721e-02 
       2.000000e+00      -7.180703e-02      -7.180686e-02 
       2.000000e+00       7.180703e-02      -7.180686e-02 
       2.000000e+00       7.180703e-02       7.180721e-02 
       2.000000e+00      -7.180703e-02       7.180721e-02 
       2.100000e+00      -7.180703e-02      -7.180684e-02 
[...]
POINT_DATA       800 
VECTORS Displacements float
      -2.58489421e-25       0.00000000e+00       0.00000000e+00 
      -3.30618428e-25       0.00000000e+00       0.00000000e+00 
       2.58489421e-25       0.00000000e+00       0.00000000e+00 
       3.30618428e-25       0.00000000e+00       0.00000000e+00 
       7.25899577e-10       5.22581978e-12       5.01858707e-10 
       7.10937489e-10       5.22581978e-12       5.01858693e-10 
      -7.25940363e-10       5.22581978e-12       5.01858680e-10 
      -7.10978276e-10       5.22581978e-12       5.01858693e-10 
       7.25899577e-10       5.22581978e-12       5.01858707e-10 
       7.10937489e-10       5.22581978e-12       5.01858693e-10 
      -7.25940363e-10       5.22581978e-12       5.01858680e-10 
      -7.10978276e-10       5.22581978e-12       5.01858693e-10 
       1.43785084e-09       2.07697748e-11       1.99461848e-09 
       1.40821416e-09       2.07697748e-11       1.99461847e-09 
      -1.43793252e-09       2.07697748e-11       1.99461846e-09 
      -1.40829584e-09       2.07697748e-11       1.99461847e-09 
       1.43785084e-09       2.07697748e-11       1.99461848e-09 
       1.40821416e-09       2.07697748e-11       1.99461847e-09 
      -1.43793252e-09       2.07697748e-11       1.99461846e-09 
      -1.40829584e-09       2.07697748e-11       1.99461847e-09 
       2.13585388e-09       4.64317196e-11       4.45905494e-09 
       2.09183010e-09       4.64317196e-11       4.45905493e-09 
      -2.13597651e-09       4.64317473e-11       4.45905489e-09 
      -2.09195272e-09       4.64317473e-11       4.45905490e-09 
       2.13585388e-09       4.64317196e-11       4.45905494e-09 
       2.09183010e-09       4.64317196e-11       4.45905493e-09 
      -2.13597651e-09       4.64317473e-11       4.45905489e-09 
      -2.09195272e-09       4.64317473e-11       4.45905490e-09 
       2.81990858e-09       8.20114809e-11       7.87594366e-09 
       2.76178519e-09       8.20114809e-11       7.87594363e-09 
      -2.82007229e-09       8.20115087e-11       7.87594352e-09 
      -2.76194889e-09       8.20115087e-11       7.87594355e-09 
       2.81990858e-09       8.20114809e-11       7.87594366e-09 
       2.76178519e-09       8.20114809e-11       7.87594363e-09 
      -2.82007229e-09       8.20115087e-11       7.87594352e-09 
      -2.76194889e-09       8.20115087e-11       7.87594355e-09 
       3.49001505e-09       1.27308844e-10       1.22260602e-08 
       3.41807949e-09       1.27308844e-10       1.22260602e-08 
      -3.49021989e-09       1.27308872e-10       1.22260600e-08 
      -3.41828438e-09       1.27308872e-10       1.22260600e-08 
       3.49001505e-09       1.27308844e-10       1.22260602e-08 
       3.41807949e-09       1.27308844e-10       1.22260602e-08 
      -3.49021989e-09       1.27308872e-10       1.22260600e-08 
      -3.41828438e-09       1.27308872e-10       1.22260600e-08 
       4.14617318e-09       1.82123649e-10       1.74901801e-08 
       4.06071310e-09       1.82123649e-10       1.74901801e-08 
      -4.14641932e-09       1.82123677e-10       1.74901799e-08 
      -4.06095924e-09       1.82123677e-10       1.74901799e-08 
       4.14617318e-09       1.82123649e-10       1.74901801e-08 
       4.06071310e-09       1.82123649e-10       1.74901801e-08 
      -4.14641932e-09       1.82123677e-10       1.74901799e-08 
      -4.06095924e-09       1.82123677e-10       1.74901799e-08 
       4.78838302e-09       2.46255710e-10       2.36490790e-08 
       4.68968575e-09       2.46255710e-10       2.36490790e-08 
      -4.78867057e-09       2.46255738e-10       2.36490787e-08 
      -4.68997330e-09       2.46255738e-10       2.36490787e-08 
       4.78838302e-09       2.46255710e-10       2.36490790e-08 
       4.68968575e-09       2.46255710e-10       2.36490790e-08 
      -4.78867057e-09       2.46255738e-10       2.36490787e-08 
      -4.68997330e-09       2.46255738e-10       2.36490787e-08 
       5.41664469e-09       3.19504853e-10       3.06835324e-08 
       5.30499777e-09       3.19504853e-10       3.06835324e-08 
      -5.41697354e-09       3.19504867e-10       3.06835320e-08 
      -5.30532662e-09       3.19504867e-10       3.06835320e-08 
       5.41664469e-09       3.19504853e-10       3.06835324e-08 
       5.30499777e-09       3.19504853e-10       3.06835324e-08 
      -5.41697354e-09       3.19504867e-10       3.06835320e-08 
      -5.30532662e-09       3.19504867e-10       3.06835320e-08 
       6.03095796e-09       4.01670835e-10       3.85743160e-08 
       5.90664895e-09       4.01670835e-10       3.85743160e-08 
      -6.03132833e-09       4.01670891e-10       3.85743155e-08 
      -5.90701932e-09       4.01670891e-10       3.85743155e-08 
       6.03095796e-09       4.01670835e-10       3.85743160e-08 
       5.90664895e-09       4.01670835e-10       3.85743160e-08 
      -6.03132833e-09       4.01670891e-10       3.85743155e-08 
      -5.90701932e-09       4.01670891e-10       3.85743155e-08 
       6.63132305e-09       4.92553567e-10       4.73022052e-08 
       6.49463927e-09       4.92553567e-10       4.73022052e-08 
      -6.63173494e-09       4.92553623e-10       4.73022046e-08 
      -6.49505116e-09       4.92553623e-10       4.73022047e-08 
       6.63132305e-09       4.92553567e-10       4.73022052e-08 
       6.49463927e-09       4.92553595e-10       4.73022052e-08 
      -6.63173494e-09       4.92553623e-10       4.73022046e-08 
      -6.49505127e-09       4.92553595e-10       4.73022047e-08 
       7.21848115e-09       5.91956317e-10       5.68483130e-08 
       7.06969505e-09       5.91956345e-10       5.68483130e-08 
      -7.21892035e-09       5.91956387e-10       5.68483123e-08 
      -7.07013426e-09       5.91956345e-10       5.68483123e-08 
       7.21848115e-09       5.91956317e-10       5.68483130e-08 
       7.06969505e-09       5.91956345e-10       5.68483130e-08 
      -7.21892035e-09       5.91956387e-10       5.68483123e-08 
      -7.07013426e-09       5.91956345e-10       5.68483123e-08 
       7.79315945e-09       6.99696481e-10       6.71951013e-08 
       7.63252839e-09       6.99696509e-10       6.71951012e-08 
      -7.79362552e-09       6.99696578e-10       6.71951004e-08 
      -7.63299446e-09       6.99696537e-10       6.71951005e-08 
       7.79315945e-09       6.99696481e-10       6.71951013e-08 
       7.63252839e-09       6.99696509e-10       6.71951012e-08 
      -7.79362552e-09       6.99696578e-10       6.71951004e-08 
      -7.63299446e-09       6.99696537e-10       6.71951005e-08 
       8.35535752e-09       8.15594953e-10       7.83253692e-08 
       8.18313839e-09       8.15594994e-10       7.83253691e-08 
      -8.35585090e-09       8.15595050e-10       7.83253682e-08 
      -8.18363199e-09       8.15595022e-10       7.83253682e-08 
       8.35535752e-09       8.15594953e-10       7.83253692e-08 
       8.18313839e-09       8.15594994e-10       7.83253691e-08 
      -8.35585090e-09       8.15595050e-10       7.83253682e-08 
      -8.18363199e-09       8.15595022e-10       7.83253682e-08 
       8.90507534e-09       9.39472625e-10       9.02219160e-08 
       8.72152572e-09       9.39472652e-10       9.02219159e-08 
      -8.90559648e-09       9.39472708e-10       9.02219148e-08 
      -8.72204686e-09       9.39472680e-10       9.02219149e-08 
       8.90507534e-09       9.39472625e-10       9.02219160e-08 
       8.72152572e-09       9.39472652e-10       9.02219159e-08 
      -8.90559648e-09       9.39472708e-10       9.02219148e-08 
      -8.72204686e-09       9.39472680e-10       9.02219149e-08 
       9.44231315e-09       1.07115038e-09       1.02867541e-07 
       9.24769017e-09       1.07115040e-09       1.02867541e-07 
      -9.44286227e-09       1.07115046e-09       1.02867539e-07 
      -9.24823929e-09       1.07115043e-09       1.02867540e-07 
       9.44231315e-09       1.07115038e-09       1.02867541e-07 
       9.24769017e-09       1.07115040e-09       1.02867541e-07 
      -9.44286227e-09       1.07115046e-09       1.02867539e-07 
      -9.24823929e-09       1.07115043e-09       1.02867540e-07 
       9.96707072e-09       1.21044909e-09       1.16245043e-07 
       9.76163150e-09       1.21044913e-09       1.16245043e-07 
      -9.96764804e-09       1.21044917e-09       1.16245041e-07 
      -9.76220882e-09       1.21044914e-09       1.16245042e-07 
       9.96707072e-09       1.21044909e-09       1.16245043e-07 
       9.76163150e-09       1.21044913e-09       1.16245043e-07 
      -9.96764804e-09       1.21044917e-09       1.16245041e-07 
      -9.76220882e-09       1.21044914e-09       1.16245042e-07 
       1.04793483e-08       1.35718968e-09       1.30337221e-07 
       1.02633504e-08       1.35718971e-09       1.30337221e-07 
      -1.04799540e-08       1.35718976e-09       1.30337220e-07 
      -1.02639557e-08       1.35718972e-09       1.30337220e-07 
       1.04793483e-08       1.35718968e-09       1.30337221e-07 
       1.02633504e-08       1.35718971e-09       1.30337221e-07 
      -1.04799540e-08       1.35718976e-09       1.30337220e-07 
      -1.02639557e-08       1.35718972e-09       1.30337220e-07 
       1.09791460e-08       1.51119302e-09       1.45126876e-07 
       1.07528462e-08       1.51119305e-09       1.45126875e-07 
      -1.09797800e-08       1.51119310e-09       1.45126874e-07 
      -1.07534801e-08       1.51119307e-09       1.45126874e-07 
       1.09791460e-08       1.51119302e-09       1.45126876e-07 
       1.07528462e-08       1.51119305e-09       1.45126875e-07 
      -1.09797800e-08       1.51119310e-09       1.45126874e-07 
      -1.07534801e-08       1.51119307e-09       1.45126874e-07 
       1.14664633e-08       1.67228000e-09       1.60596805e-07 
       1.12301191e-08       1.67228002e-09       1.60596804e-07 
      -1.14671259e-08       1.67228008e-09       1.60596803e-07 
      -1.12307816e-08       1.67228005e-09       1.60596803e-07 
       1.14664633e-08       1.67228000e-09       1.60596805e-07 
       1.12301191e-08       1.67228002e-09       1.60596804e-07 
      -1.14671259e-08       1.67228008e-09       1.60596803e-07 
      -1.12307816e-08       1.67228005e-09       1.60596803e-07 
       1.19413008e-08       1.84027149e-09       1.76729808e-07 
       1.16951693e-08       1.84027153e-09       1.76729808e-07 
      -1.19419918e-08       1.84027157e-09       1.76729806e-07 
      -1.16958603e-08       1.84027155e-09       1.76729806e-07 
       1.19413008e-08       1.84027150e-09       1.76729808e-07 
       1.16951688e-08       1.84027150e-09       1.76729808e-07 
      -1.19419921e-08       1.84027156e-09       1.76729806e-07 
      -1.16958605e-08       1.84027156e-09       1.76729806e-07 
       1.24043971e-08       2.01499194e-09       1.93509021e-07 
       1.21487203e-08       2.01499194e-09       1.93509021e-07 
      -1.24051076e-08       2.01499201e-09       1.93509019e-07 
      -1.21494308e-08       2.01499201e-09       1.93509019e-07 
       1.24043971e-08       2.01499194e-09       1.93509021e-07 
       1.21487203e-08       2.01499194e-09       1.93509021e-07 
      -1.24051076e-08       2.01499201e-09       1.93509019e-07 
      -1.21494308e-08       2.01499201e-09       1.93509019e-07 
       1.28564817e-08       2.19627977e-09       2.10918931e-07 
       1.25914865e-08       2.19627977e-09       2.10918931e-07 
      -1.28572109e-08       2.19627982e-09       2.10918929e-07 
      -1.25922162e-08       2.19627982e-09       2.10918929e-07 
       1.28564817e-08       2.19627977e-09       2.10918931e-07 
       1.25914865e-08       2.19627977e-09       2.10918931e-07 
      -1.28572109e-08       2.19627982e-09       2.10918929e-07 
      -1.25922162e-08       2.19627982e-09       2.10918929e-07 
       1.32975546e-08       2.38397692e-09       2.28944359e-07 
       1.30234685e-08       2.38397692e-09       2.28944359e-07 
      -1.32983025e-08       2.38397697e-09       2.28944357e-07 
      -1.30242164e-08       2.38397697e-09       2.28944357e-07 
       1.32975546e-08       2.38397692e-09       2.28944359e-07 
       1.30234685e-08       2.38397692e-09       2.28944359e-07 
      -1.32983025e-08       2.38397697e-09       2.28944357e-07 
      -1.30242164e-08       2.38397697e-09       2.28944357e-07 
       1.37276155e-08       2.57792537e-09       2.47570130e-07 
       1.34446649e-08       2.57792537e-09       2.47570130e-07 
      -1.37283829e-08       2.57792543e-09       2.47570127e-07 
      -1.34454323e-08       2.57792543e-09       2.47570127e-07 
       1.37276155e-08       2.57792537e-09       2.47570130e-07 
       1.34446649e-08       2.57792537e-09       2.47570130e-07 
      -1.37283829e-08       2.57792543e-09       2.47570127e-07 
      -1.34454323e-08       2.57792543e-09       2.47570127e-07 
       1.41466643e-08       2.77796712e-09       2.66781064e-07 
       1.38550766e-08       2.77796712e-09       2.66781064e-07 
      -1.41474517e-08       2.77796718e-09       2.66781062e-07 
      -1.38558640e-08       2.77796718e-09       2.66781062e-07 
       1.41466643e-08       2.77796712e-09       2.66781064e-07 
       1.38550766e-08       2.77796712e-09       2.66781064e-07 
      -1.41474517e-08       2.77796718e-09       2.66781062e-07 
      -1.38558640e-08       2.77796718e-09       2.66781062e-07 
       1.45547014e-08       2.98394406e-09       2.86561987e-07 
       1.42547032e-08       2.98394406e-09       2.86561987e-07 
      -1.45555088e-08       2.98394412e-09       2.86561984e-07 
      -1.42555105e-08       2.98394412e-09       2.86561984e-07 
       1.45547014e-08       2.98394406e-09       2.86561987e-07 
       1.42547032e-08       2.98394406e-09       2.86561987e-07 
      -1.45555088e-08       2.98394412e-09       2.86561984e-07 
      -1.42555105e-08       2.98394412e-09       2.86561984e-07 
       1.49517265e-08       3.19569822e-09       3.06897719e-07 
       1.46435450e-08       3.19569822e-09       3.06897719e-07 
      -1.49525543e-08       3.19569826e-09       3.06897716e-07 
      -1.46443728e-08       3.19569826e-09       3.06897716e-07 
       1.49517265e-08       3.19569822e-09       3.06897719e-07 
       1.46435450e-08       3.19569822e-09       3.06897719e-07 
      -1.49525543e-08       3.19569826e-09       3.06897716e-07 
      -1.46443728e-08       3.19569826e-09       3.06897716e-07 
       1.53377404e-08       3.41307152e-09       3.27773084e-07 
       1.50216026e-08       3.41307152e-09       3.27773084e-07 
      -1.53385873e-08       3.41307158e-09       3.27773081e-07 
      -1.50224495e-08       3.41307158e-09       3.27773081e-07 
       1.53377404e-08       3.41307152e-09       3.27773084e-07 
       1.50216026e-08       3.41307152e-09       3.27773084e-07 
      -1.53385873e-08       3.41307158e-09       3.27773081e-07 
      -1.50224495e-08       3.41307158e-09       3.27773081e-07 
       1.57127418e-08       3.63590592e-09       3.49172905e-07 
       1.53888746e-08       3.63590592e-09       3.49172905e-07 
      -1.57136095e-08       3.63590598e-09       3.49172902e-07 
      -1.53897419e-08       3.63590598e-09       3.49172902e-07 
       1.57127418e-08       3.63590592e-09       3.49172905e-07 
       1.53888746e-08       3.63590592e-09       3.49172905e-07 
      -1.57136095e-08       3.63590598e-09       3.49172902e-07 
      -1.53897419e-08       3.63590598e-09       3.49172902e-07 
       1.60767311e-08       3.86404340e-09       3.71082005e-07 
       1.57453615e-08       3.86404340e-09       3.71082005e-07 
      -1.60776201e-08       3.86404345e-09       3.71082002e-07 
      -1.57462501e-08       3.86404345e-09       3.71082002e-07 
       1.60767315e-08       3.86404340e-09       3.71082005e-07 
       1.57453615e-08       3.86404340e-09       3.71082005e-07 
      -1.60776197e-08       3.86404346e-09       3.71082002e-07 
      -1.57462496e-08       3.86404346e-09       3.71082002e-07 
       1.64304468e-08       4.09732942e-09       3.93485544e-07 
       1.60917861e-08       4.09732942e-09       3.93485544e-07 
      -1.64313492e-08       4.09732949e-09       3.93485540e-07 
      -1.60926885e-08       4.09732949e-09       3.93485540e-07 
       1.64304468e-08       4.09732942e-09       3.93485544e-07 
       1.60917861e-08       4.09732942e-09       3.93485544e-07 
      -1.64313492e-08       4.09732949e-09       3.93485540e-07 
      -1.60926885e-08       4.09732949e-09       3.93485540e-07 
       1.67746181e-08       4.33562353e-09       4.16370030e-07 
       1.64288640e-08       4.33562353e-09       4.16370030e-07 
      -1.67755352e-08       4.33562358e-09       4.16370026e-07 
      -1.64297806e-08       4.33562358e-09       4.16370026e-07 
       1.67746181e-08       4.33562353e-09       4.16370030e-07 
       1.64288640e-08       4.33562353e-09       4.16370030e-07 
      -1.67755352e-08       4.33562358e-09       4.16370026e-07 
      -1.64297806e-08       4.33562358e-09       4.16370026e-07 
       1.71092469e-08       4.57878871e-09       4.39722311e-07 
       1.67565952e-08       4.57878871e-09       4.39722311e-07 
      -1.71101773e-08       4.57878876e-09       4.39722307e-07 
      -1.67575256e-08       4.57878876e-09       4.39722307e-07 
       1.71092469e-08       4.57878871e-09       4.39722311e-07 
       1.67565952e-08       4.57878871e-09       4.39722311e-07 
      -1.71101773e-08       4.57878876e-09       4.39722307e-07 
      -1.67575256e-08       4.57878876e-09       4.39722307e-07 
       1.74343313e-08       4.82668805e-09       4.63529232e-07 
       1.70749788e-08       4.82668805e-09       4.63529232e-07 
      -1.74352763e-08       4.82668810e-09       4.63529228e-07 
      -1.70759242e-08       4.82668810e-09       4.63529228e-07 
       1.74343313e-08       4.82668805e-09       4.63529232e-07 
       1.70749788e-08       4.82668805e-09       4.63529232e-07 
      -1.74352763e-08       4.82668810e-09       4.63529228e-07 
      -1.70759242e-08       4.82668810e-09       4.63529228e-07 
       1.77498718e-08       5.07918453e-09       4.87777641e-07 
       1.73840160e-08       5.07918453e-09       4.87777641e-07 
      -1.77508319e-08       5.07918459e-09       4.87777637e-07 
      -1.73849761e-08       5.07918459e-09       4.87777637e-07 
       1.77498718e-08       5.07918453e-09       4.87777641e-07 
       1.73840160e-08       5.07918453e-09       4.87777641e-07 
      -1.77508319e-08       5.07918459e-09       4.87777637e-07 
      -1.73849761e-08       5.07918459e-09       4.87777637e-07 
       1.80558688e-08       5.33614124e-09       5.12454384e-07 
       1.76837056e-08       5.33614124e-09       5.12454384e-07 
      -1.80568445e-08       5.33614129e-09       5.12454379e-07 
      -1.76846813e-08       5.33614129e-09       5.12454379e-07 
       1.80558688e-08       5.33614124e-09       5.12454384e-07 
       1.76837056e-08       5.33614124e-09       5.12454384e-07 
      -1.80568445e-08       5.33614129e-09       5.12454379e-07 
      -1.76846813e-08       5.33614129e-09       5.12454379e-07 
       1.83523223e-08       5.59742115e-09       5.37546306e-07 
       1.79740485e-08       5.59742115e-09       5.37546306e-07 
      -1.83533135e-08       5.59742121e-09       5.37546302e-07 
      -1.79750401e-08       5.59742121e-09       5.37546302e-07 
       1.83523223e-08       5.59742115e-09       5.37546306e-07 
       1.79740485e-08       5.59742115e-09       5.37546306e-07 
      -1.83533135e-08       5.59742121e-09       5.37546302e-07 
      -1.79750401e-08       5.59742121e-09       5.37546302e-07 
       1.86392328e-08       5.86288736e-09       5.63040256e-07 
       1.82550455e-08       5.86288736e-09       5.63040255e-07 
      -1.86402382e-08       5.86288740e-09       5.63040251e-07 
      -1.82560509e-08       5.86288740e-09       5.63040251e-07 
       1.86392328e-08       5.86288736e-09       5.63040256e-07 
       1.82550455e-08       5.86288736e-09       5.63040255e-07 