# vtk DataFile Version 2.0
./output/onsasExample_nonLinearCantileverBlade_staitc3D_no_pitch numElements=10/onsasExample_nonLinearCantileverBlade_staitc3D_no_pitch numElements=10_0018.vtk
ASCII
DATASET UNSTRUCTURED_GRID

POINTS 800 float
      -1.266665e-24      -7.180703e-02      -7.180703e-02 
      -1.348377e-24       7.180703e-02      -7.180703e-02 
       1.266665e-24       7.180703e-02       7.180703e-02 
       1.348377e-24      -7.180703e-02       7.180703e-02 
       1.000000e-01      -7.180703e-02      -7.180703e-02 
       1.000000e-01       7.180703e-02      -7.180703e-02 
       1.000000e-01       7.180703e-02       7.180704e-02 
       1.000000e-01      -7.180703e-02       7.180704e-02 
       1.000000e-01      -7.180703e-02      -7.180703e-02 
       1.000000e-01       7.180703e-02      -7.180703e-02 
       1.000000e-01       7.180703e-02       7.180704e-02 
       1.000000e-01      -7.180703e-02       7.180704e-02 
       2.000000e-01      -7.180703e-02      -7.180702e-02 
       2.000000e-01       7.180703e-02      -7.180702e-02 
       2.000000e-01       7.180703e-02       7.180704e-02 
       2.000000e-01      -7.180703e-02       7.180704e-02 
       2.000000e-01      -7.180703e-02      -7.180702e-02 
       2.000000e-01       7.180703e-02      -7.180702e-02 
       2.000000e-01       7.180703e-02       7.180704e-02 
       2.000000e-01      -7.180703e-02       7.180704e-02 
       3.000000e-01      -7.180703e-02      -7.180701e-02 
       3.000000e-01       7.180703e-02      -7.180701e-02 
       3.000000e-01       7.180703e-02       7.180706e-02 
       3.000000e-01      -7.180703e-02       7.180706e-02 
       3.000000e-01      -7.180703e-02      -7.180701e-02 
       3.000000e-01       7.180703e-02      -7.180701e-02 
       3.000000e-01       7.180703e-02       7.180706e-02 
       3.000000e-01      -7.180703e-02       7.180706e-02 
       4.000000e-01      -7.180703e-02      -7.180699e-02 
       4.000000e-01       7.180704e-02      -7.180699e-02 
       4.000000e-01       7.180704e-02       7.180707e-02 
       4.000000e-01      -7.180703e-02       7.180707e-02 
       4.000000e-01      -7.180703e-02      -7.180699e-02 
       4.000000e-01       7.180704e-02      -7.180699e-02 
       4.000000e-01       7.180704e-02       7.180707e-02 
       4.000000e-01      -7.180703e-02       7.180707e-02 
       5.000000e-01      -7.180703e-02      -7.180697e-02 
       5.000000e-01       7.180704e-02      -7.180697e-02 
       5.000000e-01       7.180704e-02       7.180710e-02 
       5.000000e-01      -7.180703e-02       7.180710e-02 
       5.000000e-01      -7.180703e-02      -7.180697e-02 
       5.000000e-01       7.180704e-02      -7.180697e-02 
       5.000000e-01       7.180704e-02       7.180710e-02 
       5.000000e-01      -7.180703e-02       7.180710e-02 
       6.000000e-01      -7.180703e-02      -7.180694e-02 
       6.000000e-01       7.180704e-02      -7.180694e-02 
       6.000000e-01       7.180704e-02       7.180712e-02 
       6.000000e-01      -7.180703e-02       7.180712e-02 
       6.000000e-01      -7.180703e-02      -7.180694e-02 
       6.000000e-01       7.180704e-02      -7.180694e-02 
       6.000000e-01       7.180704e-02       7.180712e-02 
       6.000000e-01      -7.180703e-02       7.180712e-02 
       7.000000e-01      -7.180703e-02      -7.180691e-02 
       7.000000e-01       7.180704e-02      -7.180691e-02 
       7.000000e-01       7.180704e-02       7.180716e-02 
       7.000000e-01      -7.180703e-02       7.180716e-02 
       7.000000e-01      -7.180703e-02      -7.180691e-02 
       7.000000e-01       7.180704e-02      -7.180691e-02 
       7.000000e-01       7.180704e-02       7.180716e-02 
       7.000000e-01      -7.180703e-02       7.180716e-02 
       8.000000e-01      -7.180702e-02      -7.180687e-02 
       8.000000e-01       7.180704e-02      -7.180687e-02 
       8.000000e-01       7.180704e-02       7.180719e-02 
       8.000000e-01      -7.180702e-02       7.180719e-02 
       8.000000e-01      -7.180702e-02      -7.180687e-02 
       8.000000e-01       7.180704e-02      -7.180687e-02 
       8.000000e-01       7.180704e-02       7.180719e-02 
       8.000000e-01      -7.180702e-02       7.180719e-02 
       9.000000e-01      -7.180702e-02      -7.180683e-02 
       9.000000e-01       7.180704e-02      -7.180683e-02 
       9.000000e-01       7.180704e-02       7.180723e-02 
       9.000000e-01      -7.180702e-02       7.180723e-02 
       9.000000e-01      -7.180702e-02      -7.180683e-02 
       9.000000e-01       7.180704e-02      -7.180683e-02 
       9.000000e-01       7.180704e-02       7.180723e-02 
       9.000000e-01      -7.180702e-02       7.180723e-02 
       1.000000e+00      -7.180702e-02      -7.180679e-02 
       1.000000e+00       7.180705e-02      -7.180679e-02 
       1.000000e+00       7.180705e-02       7.180728e-02 
       1.000000e+00      -7.180702e-02       7.180728e-02 
       1.000000e+00      -7.180702e-02      -7.180679e-02 
       1.000000e+00       7.180705e-02      -7.180679e-02 
       1.000000e+00       7.180705e-02       7.180728e-02 
       1.000000e+00      -7.180702e-02       7.180728e-02 
       1.100000e+00      -7.180702e-02      -7.180674e-02 
       1.100000e+00       7.180705e-02      -7.180674e-02 
       1.100000e+00       7.180705e-02       7.180733e-02 
       1.100000e+00      -7.180702e-02       7.180733e-02 
       1.100000e+00      -7.180702e-02      -7.180674e-02 
       1.100000e+00       7.180705e-02      -7.180674e-02 
       1.100000e+00       7.180705e-02       7.180733e-02 
       1.100000e+00      -7.180702e-02       7.180733e-02 
       1.200000e+00      -7.180701e-02      -7.180668e-02 
       1.200000e+00       7.180705e-02      -7.180668e-02 
       1.200000e+00       7.180705e-02       7.180738e-02 
       1.200000e+00      -7.180701e-02       7.180738e-02 
       1.200000e+00      -7.180701e-02      -7.180668e-02 
       1.200000e+00       7.180705e-02      -7.180668e-02 
       1.200000e+00       7.180705e-02       7.180738e-02 
       1.200000e+00      -7.180701e-02       7.180738e-02 
       1.300000e+00      -7.180701e-02      -7.180662e-02 
       1.300000e+00       7.180706e-02      -7.180662e-02 
       1.300000e+00       7.180706e-02       7.180744e-02 
       1.300000e+00      -7.180701e-02       7.180744e-02 
       1.300000e+00      -7.180701e-02      -7.180662e-02 
       1.300000e+00       7.180706e-02      -7.180662e-02 
       1.300000e+00       7.180706e-02       7.180744e-02 
       1.300000e+00      -7.180701e-02       7.180744e-02 
       1.400000e+00      -7.180701e-02      -7.180656e-02 
       1.400000e+00       7.180706e-02      -7.180656e-02 
       1.400000e+00       7.180706e-02       7.180750e-02 
       1.400000e+00      -7.180701e-02       7.180750e-02 
       1.400000e+00      -7.180701e-02      -7.180656e-02 
       1.400000e+00       7.180706e-02      -7.180656e-02 
       1.400000e+00       7.180706e-02       7.180750e-02 
       1.400000e+00      -7.180701e-02       7.180750e-02 
       1.500000e+00      -7.180700e-02      -7.180650e-02 
       1.500000e+00       7.180706e-02      -7.180650e-02 
       1.500000e+00       7.180706e-02       7.180757e-02 
       1.500000e+00      -7.180700e-02       7.180757e-02 
       1.500000e+00      -7.180700e-02      -7.180650e-02 
       1.500000e+00       7.180706e-02      -7.180650e-02 
       1.500000e+00       7.180706e-02       7.180757e-02 
       1.500000e+00      -7.180700e-02       7.180757e-02 
       1.600000e+00      -7.180700e-02      -7.180643e-02 
       1.600000e+00       7.180707e-02      -7.180643e-02 
       1.600000e+00       7.180707e-02       7.180764e-02 
       1.600000e+00      -7.180700e-02       7.180764e-02 
       1.600000e+00      -7.180700e-02      -7.180643e-02 
       1.600000e+00       7.180707e-02      -7.180643e-02 
       1.600000e+00       7.180707e-02       7.180764e-02 
       1.600000e+00      -7.180700e-02       7.180764e-02 
       1.700000e+00      -7.180699e-02      -7.180635e-02 
       1.700000e+00       7.180707e-02      -7.180635e-02 
       1.700000e+00       7.180707e-02       7.180771e-02 
       1.700000e+00      -7.180699e-02       7.180771e-02 
       1.700000e+00      -7.180699e-02      -7.180635e-02 
       1.700000e+00       7.180707e-02      -7.180635e-02 
       1.700000e+00       7.180707e-02       7.180771e-02 
       1.700000e+00      -7.180699e-02       7.180771e-02 
       1.800000e+00      -7.180699e-02      -7.180628e-02 
       1.800000e+00       7.180708e-02      -7.180628e-02 
       1.800000e+00       7.180708e-02       7.180779e-02 
       1.800000e+00      -7.180699e-02       7.180779e-02 
       1.800000e+00      -7.180699e-02      -7.180628e-02 
       1.800000e+00       7.180708e-02      -7.180628e-02 
       1.800000e+00       7.180708e-02       7.180779e-02 
       1.800000e+00      -7.180699e-02       7.180779e-02 
       1.900000e+00      -7.180699e-02      -7.180620e-02 
       1.900000e+00       7.180708e-02      -7.180620e-02 
       1.900000e+00       7.180708e-02       7.180787e-02 
       1.900000e+00      -7.180699e-02       7.180787e-02 
       1.900000e+00      -7.180699e-02      -7.180620e-02 
       1.900000e+00       7.180708e-02      -7.180620e-02 
       1.900000e+00       7.180708e-02       7.180787e-02 
       1.900000e+00      -7.180699e-02       7.180787e-02 
       2.000000e+00      -7.180698e-02      -7.180611e-02 
       2.000000e+00       7.180709e-02      -7.180611e-02 
       2.000000e+00       7.180709e-02       7.180796e-02 
       2.000000e+00      -7.180698e-02       7.180796e-02 
       2.000000e+00      -7.180698e-02      -7.180611e-02 
       2.000000e+00       7.180709e-02      -7.180611e-02 
       2.000000e+00       7.180709e-02       7.180796e-02 
       2.000000e+00      -7.180698e-02       7.180796e-02 
       2.100000e+00      -7.180698e-02      -7.180602e-02 
[...]
POINT_DATA       800 
VECTORS Displacements float
      -1.26666480e-24       0.00000000e+00       0.00000000e+00 
      -1.34837694e-24       0.00000000e+00       0.00000000e+00 
       1.26666480e-24       0.00000000e+00       0.00000000e+00 
       1.34837694e-24       0.00000000e+00       0.00000000e+00 
       3.96175713e-09       1.49350102e-10       2.61850706e-09 
       3.53414988e-09       1.49350088e-10       2.61850626e-09 
      -3.96292880e-09       1.49350879e-10       2.61850606e-09 
      -3.53532155e-09       1.49350879e-10       2.61850687e-09 
       3.96175713e-09       1.49350102e-10       2.61850706e-09 
       3.53414988e-09       1.49350088e-10       2.61850626e-09 
      -3.96292880e-09       1.49350879e-10       2.61850606e-09 
      -3.53532155e-09       1.49350879e-10       2.61850687e-09 
       7.84737827e-09       5.93587138e-10       1.04071570e-08 
       7.00038005e-09       5.93587152e-10       1.04071554e-08 
      -7.84972420e-09       5.93588692e-10       1.04071546e-08 
      -7.00272598e-09       5.93588664e-10       1.04071562e-08 
       7.84737827e-09       5.93587138e-10       1.04071570e-08 
       7.00038005e-09       5.93587152e-10       1.04071554e-08 
      -7.84972420e-09       5.93588692e-10       1.04071546e-08 
      -7.00272598e-09       5.93588664e-10       1.04071562e-08 
       1.16568635e-08       1.32699002e-09       2.32656441e-08 
       1.03986906e-08       1.32699003e-09       2.32656417e-08 
      -1.16603862e-08       1.32699231e-09       2.32656400e-08 
      -1.04022133e-08       1.32699229e-09       2.32656424e-08 
       1.16568635e-08       1.32699002e-09       2.32656441e-08 
       1.03986906e-08       1.32699003e-09       2.32656417e-08 
      -1.16603862e-08       1.32699231e-09       2.32656400e-08 
      -1.04022133e-08       1.32699229e-09       2.32656424e-08 
       1.53902128e-08       2.34383767e-09       4.10936627e-08 
       1.37290815e-08       2.34383767e-09       4.10936594e-08 
      -1.53949146e-08       2.34384068e-09       4.10936564e-08 
      -1.37337834e-08       2.34384066e-09       4.10936598e-08 
       1.53902128e-08       2.34383767e-09       4.10936627e-08 
       1.37290815e-08       2.34383767e-09       4.10936594e-08 
      -1.53949146e-08       2.34384068e-09       4.10936564e-08 
      -1.37337834e-08       2.34384066e-09       4.10936598e-08 
       1.90474262e-08       3.63840896e-09       6.37909071e-08 
       1.69915527e-08       3.63840896e-09       6.37909029e-08 
      -1.90533097e-08       3.63841268e-09       6.37908983e-08 
      -1.69974363e-08       3.63841268e-09       6.37909026e-08 
       1.90474262e-08       3.63840896e-09       6.37909071e-08 
       1.69915527e-08       3.63840896e-09       6.37909029e-08 
      -1.90533097e-08       3.63841268e-09       6.37908983e-08 
      -1.69974363e-08       3.63841268e-09       6.37909026e-08 
       2.26285037e-08       5.20498288e-09       9.12570715e-08 
       2.01861045e-08       5.20498286e-09       9.12570663e-08 
      -2.26355713e-08       5.20498726e-09       9.12570600e-08 
      -2.01931720e-08       5.20498726e-09       9.12570651e-08 
       2.26285037e-08       5.20498288e-09       9.12570715e-08 
       2.01861045e-08       5.20498286e-09       9.12570663e-08 
      -2.26355713e-08       5.20498726e-09       9.12570600e-08 
      -2.01931720e-08       5.20498726e-09       9.12570651e-08 
       2.61334453e-08       7.03783827e-09       1.23391850e-07 
       2.33127366e-08       7.03783826e-09       1.23391844e-07 
      -2.61416992e-08       7.03784331e-09       1.23391836e-07 
      -2.33209906e-08       7.03784332e-09       1.23391842e-07 
       2.61334453e-08       7.03783827e-09       1.23391850e-07 
       2.33127366e-08       7.03783826e-09       1.23391844e-07 
      -2.61416992e-08       7.03784331e-09       1.23391836e-07 
      -2.33209906e-08       7.03784332e-09       1.23391842e-07 
       2.95622512e-08       9.13125406e-09       1.60094938e-07 
       2.63714492e-08       9.13125404e-09       1.60094931e-07 
      -2.95716936e-08       9.13125975e-09       1.60094920e-07 
      -2.63808917e-08       9.13125978e-09       1.60094927e-07 
       2.95622512e-08       9.13125406e-09       1.60094938e-07 
       2.63714492e-08       9.13125404e-09       1.60094931e-07 
      -2.95716936e-08       9.13125975e-09       1.60094920e-07 
      -2.63808917e-08       9.13125978e-09       1.60094927e-07 
       3.29149213e-08       1.14795092e-08       2.01266028e-07 
       2.93622424e-08       1.14795091e-08       2.01266020e-07 
      -3.29255545e-08       1.14795155e-08       2.01266006e-07 
      -2.93728756e-08       1.14795156e-08       2.01266014e-07 
       3.29149213e-08       1.14795092e-08       2.01266028e-07 
       2.93622424e-08       1.14795091e-08       2.01266020e-07 
      -3.29255545e-08       1.14795155e-08       2.01266006e-07 
      -2.93728756e-08       1.14795156e-08       2.01266014e-07 
       3.61914556e-08       1.40768825e-08       2.46804815e-07 
       3.22851161e-08       1.40768825e-08       2.46804807e-07 
      -3.62032817e-08       1.40768895e-08       2.46804790e-07 
      -3.22969421e-08       1.40768895e-08       2.46804799e-07 
       3.61914556e-08       1.40768825e-08       2.46804815e-07 
       3.22851161e-08       1.40768825e-08       2.46804807e-07 
      -3.62032817e-08       1.40768895e-08       2.46804790e-07 
      -3.22969421e-08       1.40768896e-08       2.46804799e-07 
       3.93960706e-08       1.69177536e-08       2.96612754e-07 
       3.51438543e-08       1.69177535e-08       2.96612745e-07 
      -3.94086730e-08       1.69177608e-08       2.96612725e-07 
      -3.51564566e-08       1.69177609e-08       2.96612735e-07 
       3.93960706e-08       1.69177536e-08       2.96612754e-07 
       3.51438543e-08       1.69177535e-08       2.96612745e-07 
      -3.94086730e-08       1.69177608e-08       2.96612725e-07 
      -3.51564566e-08       1.69177609e-08       2.96612735e-07 
       4.25325626e-08       1.99969029e-08       3.50598337e-07 
       3.79418208e-08       1.99969028e-08       3.50598327e-07 
      -4.25459465e-08       1.99969104e-08       3.50598304e-07 
      -3.79552045e-08       1.99969104e-08       3.50598315e-07 
       4.25325626e-08       1.99969029e-08       3.50598337e-07 
       3.79418208e-08       1.99969028e-08       3.50598327e-07 
      -4.25459465e-08       1.99969104e-08       3.50598304e-07 
      -3.79552045e-08       1.99969104e-08       3.50598315e-07 
       4.56009310e-08       2.33092116e-08       4.08671817e-07 
       4.06790153e-08       2.33092115e-08       4.08671806e-07 
      -4.56151021e-08       2.33092194e-08       4.08671780e-07 
      -4.06931864e-08       2.33092194e-08       4.08671791e-07 
       4.56009310e-08       2.33092116e-08       4.08671817e-07 
       4.06790153e-08       2.33092115e-08       4.08671806e-07 
      -4.56151021e-08       2.33092194e-08       4.08671780e-07 
      -4.06931864e-08       2.33092194e-08       4.08671791e-07 
       4.86011766e-08       2.68495609e-08       4.70743447e-07 
       4.33554381e-08       2.68495608e-08       4.70743436e-07 
      -4.86161402e-08       2.68495688e-08       4.70743406e-07 
      -4.33704017e-08       2.68495689e-08       4.70743418e-07 
       4.86011766e-08       2.68495609e-08       4.70743447e-07 
       4.33554381e-08       2.68495608e-08       4.70743436e-07 
      -4.86161402e-08       2.68495688e-08       4.70743406e-07 
      -4.33704017e-08       2.68495689e-08       4.70743418e-07 
       5.15332985e-08       3.06128318e-08       5.36723480e-07 
       4.59710889e-08       3.06128317e-08       5.36723468e-07 
      -5.15490604e-08       3.06128400e-08       5.36723435e-07 
      -4.59868508e-08       3.06128401e-08       5.36723447e-07 
       5.15332985e-08       3.06128318e-08       5.36723480e-07 
       4.59710889e-08       3.06128317e-08       5.36723468e-07 
      -5.15490604e-08       3.06128400e-08       5.36723435e-07 
      -4.59868508e-08       3.06128401e-08       5.36723447e-07 
       5.43972973e-08       3.45939055e-08       6.06522168e-07 
       4.85259681e-08       3.45939054e-08       6.06522155e-07 
      -5.44138627e-08       3.45939140e-08       6.06522118e-07 
      -4.85425335e-08       3.45939141e-08       6.06522131e-07 
       5.43972973e-08       3.45939055e-08       6.06522168e-07 
       4.85259681e-08       3.45939054e-08       6.06522155e-07 
      -5.44138627e-08       3.45939140e-08       6.06522118e-07 
      -4.85425335e-08       3.45939141e-08       6.06522131e-07 
       5.71931735e-08       3.87876632e-08       6.80049764e-07 
       5.10200759e-08       3.87876631e-08       6.80049751e-07 
      -5.72105467e-08       3.87876719e-08       6.80049710e-07 
      -5.10374492e-08       3.87876720e-08       6.80049724e-07 
       5.71931735e-08       3.87876632e-08       6.80049764e-07 
       5.10200759e-08       3.87876631e-08       6.80049751e-07 
      -5.72105467e-08       3.87876719e-08       6.80049710e-07 
      -5.10374492e-08       3.87876720e-08       6.80049724e-07 
       5.99209267e-08       4.31889859e-08       7.57216522e-07 
       5.34534121e-08       4.31889858e-08       7.57216508e-07 
      -5.99391130e-08       4.31889948e-08       7.57216463e-07 
      -5.34715985e-08       4.31889950e-08       7.57216477e-07 
       5.99209267e-08       4.31889859e-08       7.57216522e-07 
       5.34534121e-08       4.31889858e-08       7.57216508e-07 
      -5.99391130e-08       4.31889948e-08       7.57216463e-07 
      -5.34715985e-08       4.31889950e-08       7.57216477e-07 
       6.25805567e-08       4.77927549e-08       8.37932693e-07 
       5.58259767e-08       4.77927547e-08       8.37932678e-07 
      -6.25995611e-08       4.77927640e-08       8.37932630e-07 
      -5.58449811e-08       4.77927641e-08       8.37932644e-07 
       6.25805567e-08       4.77927549e-08       8.37932693e-07 
       5.58259767e-08       4.77927547e-08       8.37932678e-07 
      -6.25995611e-08       4.77927640e-08       8.37932630e-07 
      -5.58449811e-08       4.77927641e-08       8.37932644e-07 
       6.51720642e-08       5.25938511e-08       9.22108531e-07 
       5.81377702e-08       5.25938510e-08       9.22108516e-07 
      -6.51918910e-08       5.25938604e-08       9.22108463e-07 
      -5.81575970e-08       5.25938606e-08       9.22108478e-07 
       6.51720642e-08       5.25938511e-08       9.22108531e-07 
       5.81377702e-08       5.25938510e-08       9.22108516e-07 
      -6.51918910e-08       5.25938604e-08       9.22108463e-07 
      -5.81575967e-08       5.25938606e-08       9.22108478e-07 
       6.76996028e-08       5.75872563e-08       1.00965605e-06 
       6.03925137e-08       5.75872562e-08       1.00965603e-06 
      -6.77199625e-08       5.75872656e-08       1.00965598e-06 
      -6.04128734e-08       5.75872658e-08       1.00965599e-06 
       6.76996028e-08       5.75872563e-08       1.00965605e-06 
       6.03925137e-08       5.75872562e-08       1.00965603e-06 
      -6.77199625e-08       5.75872656e-08       1.00965598e-06 
      -6.04128734e-08       5.75872658e-08       1.00965599e-06 
       7.01670322e-08       6.27683534e-08       1.10049430e-06 
       6.25936343e-08       6.27683532e-08       1.10049428e-06 
      -7.01879310e-08       6.27683626e-08       1.10049422e-06 
      -6.26145331e-08       6.27683628e-08       1.10049423e-06 
       7.01670322e-08       6.27683534e-08       1.10049430e-06 
       6.25936343e-08       6.27683532e-08       1.10049428e-06 
      -7.01879310e-08       6.27683626e-08       1.10049422e-06 
      -6.26145331e-08       6.27683628e-08       1.10049423e-06 
       7.25743523e-08       6.81326255e-08       1.19454409e-06 
       6.47411325e-08       6.81326253e-08       1.19454407e-06 
      -7.25957960e-08       6.81326348e-08       1.19454400e-06 
      -6.47625762e-08       6.81326350e-08       1.19454402e-06 
       7.25743523e-08       6.81326255e-08       1.19454409e-06 
       6.47411325e-08       6.81326253e-08       1.19454407e-06 
      -7.25957960e-08       6.81326348e-08       1.19454400e-06 
      -6.47625762e-08       6.81326350e-08       1.19454402e-06 
       7.49215623e-08       7.36755563e-08       1.29172623e-06 
       6.68350069e-08       7.36755560e-08       1.29172621e-06 
      -7.49435585e-08       7.36755655e-08       1.29172614e-06 
      -6.68570030e-08       7.36755657e-08       1.29172616e-06 
       7.49215623e-08       7.36755563e-08       1.29172623e-06 
       6.68350069e-08       7.36755560e-08       1.29172621e-06 
      -7.49435585e-08       7.36755655e-08       1.29172614e-06 
      -6.68570030e-08       7.36755657e-08       1.29172616e-06 
       7.72086626e-08       7.93926288e-08       1.39196154e-06 
       6.88752584e-08       7.93926286e-08       1.39196152e-06 
      -7.72312174e-08       7.93926381e-08       1.39196144e-06 
      -6.88978132e-08       7.93926383e-08       1.39196146e-06 
       7.72086626e-08       7.93926288e-08       1.39196154e-06 
       6.88752584e-08       7.93926286e-08       1.39196152e-06 
      -7.72312174e-08       7.93926381e-08       1.39196144e-06 
      -6.88978132e-08       7.93926383e-08       1.39196146e-06 
       7.94356541e-08       8.52793266e-08       1.49517082e-06 
       7.08618875e-08       8.52793264e-08       1.49517080e-06 
      -7.94587733e-08       8.52793358e-08       1.49517072e-06 
      -7.08850068e-08       8.52793361e-08       1.49517074e-06 
       7.94356541e-08       8.52793266e-08       1.49517082e-06 
       7.08618875e-08       8.52793264e-08       1.49517080e-06 
      -7.94587733e-08       8.52793358e-08       1.49517072e-06 
      -7.08850068e-08       8.52793361e-08       1.49517074e-06 
       8.16025363e-08       9.13311330e-08       1.60127489e-06 
       7.27948937e-08       9.13311327e-08       1.60127487e-06 
      -8.16262258e-08       9.13311422e-08       1.60127479e-06 
      -7.28185832e-08       9.13311425e-08       1.60127481e-06 
       8.16025363e-08       9.13311330e-08       1.60127489e-06 
       7.27948937e-08       9.13311327e-08       1.60127487e-06 
      -8.16262258e-08       9.13311422e-08       1.60127479e-06 
      -7.28185832e-08       9.13311425e-08       1.60127481e-06 
       8.37093093e-08       9.75435313e-08       1.71019456e-06 
       7.46742774e-08       9.75435310e-08       1.71019454e-06 
      -8.37335739e-08       9.75435405e-08       1.71019445e-06 
      -7.46985420e-08       9.75435407e-08       1.71019447e-06 
       8.37093093e-08       9.75435313e-08       1.71019456e-06 
       7.46742774e-08       9.75435310e-08       1.71019454e-06 
      -8.37335739e-08       9.75435405e-08       1.71019445e-06 
      -7.46985420e-08       9.75435407e-08       1.71019447e-06 
       8.57559730e-08       1.03912005e-07       1.82185064e-06 
       7.65000383e-08       1.03912005e-07       1.82185062e-06 
      -8.57808193e-08       1.03912014e-07       1.82185053e-06 
      -7.65248847e-08       1.03912014e-07       1.82185055e-06 
       8.57559730e-08       1.03912005e-07       1.82185064e-06 
       7.65000383e-08       1.03912005e-07       1.82185062e-06 
      -8.57808193e-08       1.03912014e-07       1.82185053e-06 
      -7.65248847e-08       1.03912014e-07       1.82185055e-06 
       8.77425275e-08       1.10432037e-07       1.93616394e-06 
       7.82721767e-08       1.10432037e-07       1.93616392e-06 
      -8.77679613e-08       1.10432046e-07       1.93616382e-06 
      -7.82976102e-08       1.10432047e-07       1.93616384e-06 
       8.77425275e-08       1.10432037e-07       1.93616394e-06 
       7.82721763e-08       1.10432037e-07       1.93616392e-06 
      -8.77679613e-08       1.10432046e-07       1.93616382e-06 
      -7.82976102e-08       1.10432047e-07       1.93616384e-06 
       8.96730792e-08       1.17099212e-07       2.05305703e-06 
       7.99943662e-08       1.17099211e-07       2.05305701e-06 
      -8.96989074e-08       1.17099221e-07       2.05305691e-06 
      -8.00201945e-08       1.17099221e-07       2.05305693e-06 
       8.96730792e-08       1.17099212e-07       2.05305703e-06 
       7.99943662e-08       1.17099211e-07       2.05305701e-06 
      -8.96989074e-08       1.17099221e-07       2.05305691e-06 
      -8.00201945e-08       1.17099221e-07       2.05305693e-06 
       9.15515352e-08       1.23909514e-07       2.17245953e-06 
       8.16700818e-08       1.23909514e-07       2.17245950e-06 
      -9.15777649e-08       1.23909523e-07       2.17245940e-06 
      -8.16963110e-08       1.23909523e-07       2.17245942e-06 
       9.15515352e-08       1.23909514e-07       2.17245953e-06 
       8.16700818e-08       1.23909514e-07       2.17245950e-06 
      -9.15777649e-08       1.23909523e-07       2.17245940e-06 
      -8.16963110e-08       1.23909523e-07       2.17245942e-06 
       9.33778970e-08       1.30859029e-07       2.29430279e-06 
       8.32993248e-08       1.30859029e-07       2.29430277e-06 
      -9.34045326e-08       1.30859038e-07       2.29430266e-06 
      -8.33259604e-08       1.30859038e-07       2.29430268e-06 
       9.33778970e-08       1.30859029e-07       2.29430279e-06 
       8.32993248e-08       1.30859029e-07       2.29430277e-06 
      -9.34045326e-08       1.30859038e-07       2.29430266e-06 
      -8.33259604e-08       1.30859038e-07       2.29430268e-06 
       9.51521630e-08       1.37943843e-07       2.41851820e-06 
       8.48820934e-08       1.37943843e-07       2.41851818e-06 
      -9.51792116e-08       1.37943852e-07       2.41851806e-06 
      -8.49091424e-08       1.37943852e-07       2.41851809e-06 
       9.51521630e-08       1.37943843e-07       2.41851820e-06 
       8.48820934e-08       1.37943843e-07       2.41851818e-06 
      -9.51792116e-08       1.37943852e-07       2.41851806e-06 
      -8.49091424e-08       1.37943852e-07       2.41851809e-06 
       9.68743334e-08       1.45160041e-07       2.54503712e-06 
       8.64183889e-08       1.45160041e-07       2.54503710e-06 
      -9.69018017e-08       1.45160050e-07       2.54503698e-06 
      -8.64458567e-08       1.45160050e-07       2.54503700e-06 
       9.68743334e-08       1.45160041e-07       2.54503712e-06 
       8.64183889e-08       1.45160041e-07       2.54503710e-06 
      -9.69018017e-08       1.45160050e-07       2.54503698e-06 
      -8.64458567e-08       1.45160050e-07       2.54503700e-06 
       9.85444095e-08       1.52503710e-07       2.67379092e-06 
       8.79082105e-08       1.52503709e-07       2.67379090e-06 
      -9.85723023e-08       1.52503718e-07       2.67379078e-06 
      -8.79361033e-08       1.52503718e-07       2.67379080e-06 
       9.85444095e-08       1.52503710e-07       2.67379092e-06 
       8.79082105e-08       1.52503709e-07       2.67379090e-06 
      -9.85723023e-08       1.52503718e-07       2.67379078e-06 
      -8.79361033e-08       1.52503718e-07       2.67379080e-06 
       1.00162390e-07       1.59970933e-07       2.80471097e-06 
       8.93515590e-08       1.59970933e-07       2.80471095e-06 
      -1.00190714e-07       1.59970941e-07       2.80471082e-06 
      -8.93798826e-08       1.59970942e-07       2.80471085e-06 
       1.00162390e-07       1.59970933e-07       2.80471097e-06 
       8.93515590e-08       1.59970933e-07       2.80471095e-06 
      -1.00190714e-07       1.59970941e-07       2.80471082e-06 
      -8.93798826e-08       1.59970942e-07       2.80471085e-06 
       1.01728276e-07       1.67557798e-07       2.93772864e-06 
       9.07484354e-08       1.67557797e-07       2.93772862e-06 
      -1.01757035e-07       1.67557806e-07       2.93772849e-06 
      -9.07771933e-08       1.67557806e-07       2.93772851e-06 
       1.01728276e-07       1.67557798e-07       2.93772864e-06 
       9.07484354e-08       1.67557797e-07       2.93772862e-06 