# vtk DataFile Version 2.0
./output/onsasExample_nonLinearCantileverBlade_staitc3D_no_pitch numElements=10/onsasExample_nonLinearCantileverBlade_staitc3D_no_pitch numElements=10_0028.vtk
ASCII
DATASET UNSTRUCTURED_GRID

POINTS 800 float
      -1.791522e-24      -7.180703e-02      -7.180703e-02 
       7.503751e-25       7.180703e-02      -7.180703e-02 
       1.791522e-24       7.180703e-02       7.180703e-02 
      -7.503751e-25      -7.180703e-02       7.180703e-02 
       1.000000e-01      -7.180703e-02      -7.180703e-02 
       1.000000e-01       7.180703e-02      -7.180703e-02 
       1.000000e-01       7.180703e-02       7.180703e-02 
       1.000000e-01      -7.180703e-02       7.180703e-02 
       1.000000e-01      -7.180703e-02      -7.180703e-02 
       1.000000e-01       7.180703e-02      -7.180703e-02 
       1.000000e-01       7.180703e-02       7.180703e-02 
       1.000000e-01      -7.180703e-02       7.180703e-02 
       2.000000e-01      -7.180703e-02      -7.180704e-02 
       2.000000e-01       7.180704e-02      -7.180704e-02 
       2.000000e-01       7.180704e-02       7.180703e-02 
       2.000000e-01      -7.180703e-02       7.180703e-02 
       2.000000e-01      -7.180703e-02      -7.180704e-02 
       2.000000e-01       7.180704e-02      -7.180704e-02 
       2.000000e-01       7.180704e-02       7.180703e-02 
       2.000000e-01      -7.180703e-02       7.180703e-02 
       3.000000e-01      -7.180703e-02      -7.180704e-02 
       3.000000e-01       7.180704e-02      -7.180704e-02 
       3.000000e-01       7.180704e-02       7.180703e-02 
       3.000000e-01      -7.180703e-02       7.180703e-02 
       3.000000e-01      -7.180703e-02      -7.180704e-02 
       3.000000e-01       7.180704e-02      -7.180704e-02 
       3.000000e-01       7.180704e-02       7.180703e-02 
       3.000000e-01      -7.180703e-02       7.180703e-02 
       4.000000e-01      -7.180702e-02      -7.180704e-02 
       4.000000e-01       7.180704e-02      -7.180704e-02 
       4.000000e-01       7.180704e-02       7.180702e-02 
       4.000000e-01      -7.180702e-02       7.180702e-02 
       4.000000e-01      -7.180702e-02      -7.180704e-02 
       4.000000e-01       7.180704e-02      -7.180704e-02 
       4.000000e-01       7.180704e-02       7.180702e-02 
       4.000000e-01      -7.180702e-02       7.180702e-02 
       5.000000e-01      -7.180702e-02      -7.180705e-02 
       5.000000e-01       7.180705e-02      -7.180705e-02 
       5.000000e-01       7.180705e-02       7.180702e-02 
       5.000000e-01      -7.180702e-02       7.180702e-02 
       5.000000e-01      -7.180702e-02      -7.180705e-02 
       5.000000e-01       7.180705e-02      -7.180705e-02 
       5.000000e-01       7.180705e-02       7.180702e-02 
       5.000000e-01      -7.180702e-02       7.180702e-02 
       6.000000e-01      -7.180701e-02      -7.180705e-02 
       6.000000e-01       7.180706e-02      -7.180705e-02 
       6.000000e-01       7.180706e-02       7.180702e-02 
       6.000000e-01      -7.180701e-02       7.180702e-02 
       6.000000e-01      -7.180701e-02      -7.180705e-02 
       6.000000e-01       7.180706e-02      -7.180705e-02 
       6.000000e-01       7.180706e-02       7.180702e-02 
       6.000000e-01      -7.180701e-02       7.180702e-02 
       7.000000e-01      -7.180700e-02      -7.180706e-02 
       7.000000e-01       7.180707e-02      -7.180706e-02 
       7.000000e-01       7.180707e-02       7.180701e-02 
       7.000000e-01      -7.180700e-02       7.180701e-02 
       7.000000e-01      -7.180700e-02      -7.180706e-02 
       7.000000e-01       7.180707e-02      -7.180706e-02 
       7.000000e-01       7.180707e-02       7.180701e-02 
       7.000000e-01      -7.180700e-02       7.180701e-02 
       8.000000e-01      -7.180699e-02      -7.180706e-02 
       8.000000e-01       7.180708e-02      -7.180706e-02 
       8.000000e-01       7.180708e-02       7.180700e-02 
       8.000000e-01      -7.180699e-02       7.180700e-02 
       8.000000e-01      -7.180699e-02      -7.180706e-02 
       8.000000e-01       7.180708e-02      -7.180706e-02 
       8.000000e-01       7.180708e-02       7.180700e-02 
       8.000000e-01      -7.180699e-02       7.180700e-02 
       9.000000e-01      -7.180698e-02      -7.180707e-02 
       9.000000e-01       7.180709e-02      -7.180707e-02 
       9.000000e-01       7.180709e-02       7.180699e-02 
       9.000000e-01      -7.180698e-02       7.180699e-02 
       9.000000e-01      -7.180698e-02      -7.180707e-02 
       9.000000e-01       7.180709e-02      -7.180707e-02 
       9.000000e-01       7.180709e-02       7.180699e-02 
       9.000000e-01      -7.180698e-02       7.180699e-02 
       1.000000e+00      -7.180697e-02      -7.180708e-02 
       1.000000e+00       7.180710e-02      -7.180708e-02 
       1.000000e+00       7.180710e-02       7.180698e-02 
       1.000000e+00      -7.180697e-02       7.180698e-02 
       1.000000e+00      -7.180697e-02      -7.180708e-02 
       1.000000e+00       7.180710e-02      -7.180708e-02 
       1.000000e+00       7.180710e-02       7.180698e-02 
       1.000000e+00      -7.180697e-02       7.180698e-02 
       1.100000e+00      -7.180696e-02      -7.180709e-02 
       1.100000e+00       7.180711e-02      -7.180709e-02 
       1.100000e+00       7.180711e-02       7.180697e-02 
       1.100000e+00      -7.180696e-02       7.180697e-02 
       1.100000e+00      -7.180696e-02      -7.180709e-02 
       1.100000e+00       7.180711e-02      -7.180709e-02 
       1.100000e+00       7.180711e-02       7.180697e-02 
       1.100000e+00      -7.180696e-02       7.180697e-02 
       1.200000e+00      -7.180694e-02      -7.180710e-02 
       1.200000e+00       7.180712e-02      -7.180710e-02 
       1.200000e+00       7.180712e-02       7.180696e-02 
       1.200000e+00      -7.180694e-02       7.180696e-02 
       1.200000e+00      -7.180694e-02      -7.180710e-02 
       1.200000e+00       7.180712e-02      -7.180710e-02 
       1.200000e+00       7.180712e-02       7.180696e-02 
       1.200000e+00      -7.180694e-02       7.180696e-02 
       1.300000e+00      -7.180693e-02      -7.180711e-02 
       1.300000e+00       7.180714e-02      -7.180711e-02 
       1.300000e+00       7.180714e-02       7.180695e-02 
       1.300000e+00      -7.180693e-02       7.180695e-02 
       1.300000e+00      -7.180693e-02      -7.180711e-02 
       1.300000e+00       7.180714e-02      -7.180711e-02 
       1.300000e+00       7.180714e-02       7.180695e-02 
       1.300000e+00      -7.180693e-02       7.180695e-02 
       1.400000e+00      -7.180691e-02      -7.180713e-02 
       1.400000e+00       7.180716e-02      -7.180713e-02 
       1.400000e+00       7.180716e-02       7.180694e-02 
       1.400000e+00      -7.180691e-02       7.180694e-02 
       1.400000e+00      -7.180691e-02      -7.180713e-02 
       1.400000e+00       7.180716e-02      -7.180713e-02 
       1.400000e+00       7.180716e-02       7.180694e-02 
       1.400000e+00      -7.180691e-02       7.180694e-02 
       1.500000e+00      -7.180689e-02      -7.180714e-02 
       1.500000e+00       7.180717e-02      -7.180714e-02 
       1.500000e+00       7.180717e-02       7.180693e-02 
       1.500000e+00      -7.180689e-02       7.180693e-02 
       1.500000e+00      -7.180689e-02      -7.180714e-02 
       1.500000e+00       7.180717e-02      -7.180714e-02 
       1.500000e+00       7.180717e-02       7.180693e-02 
       1.500000e+00      -7.180689e-02       7.180693e-02 
       1.600000e+00      -7.180687e-02      -7.180715e-02 
       1.600000e+00       7.180719e-02      -7.180715e-02 
       1.600000e+00       7.180719e-02       7.180691e-02 
       1.600000e+00      -7.180687e-02       7.180691e-02 
       1.600000e+00      -7.180687e-02      -7.180715e-02 
       1.600000e+00       7.180719e-02      -7.180715e-02 
       1.600000e+00       7.180719e-02       7.180691e-02 
       1.600000e+00      -7.180687e-02       7.180691e-02 
       1.700000e+00      -7.180685e-02      -7.180717e-02 
       1.700000e+00       7.180721e-02      -7.180717e-02 
       1.700000e+00       7.180721e-02       7.180690e-02 
       1.700000e+00      -7.180685e-02       7.180690e-02 
       1.700000e+00      -7.180685e-02      -7.180717e-02 
       1.700000e+00       7.180721e-02      -7.180717e-02 
       1.700000e+00       7.180721e-02       7.180690e-02 
       1.700000e+00      -7.180685e-02       7.180690e-02 
       1.800000e+00      -7.180683e-02      -7.180718e-02 
       1.800000e+00       7.180723e-02      -7.180718e-02 
       1.800000e+00       7.180723e-02       7.180688e-02 
       1.800000e+00      -7.180683e-02       7.180688e-02 
       1.800000e+00      -7.180683e-02      -7.180718e-02 
       1.800000e+00       7.180723e-02      -7.180718e-02 
       1.800000e+00       7.180723e-02       7.180688e-02 
       1.800000e+00      -7.180683e-02       7.180688e-02 
       1.900000e+00      -7.180681e-02      -7.180720e-02 
       1.900000e+00       7.180725e-02      -7.180720e-02 
       1.900000e+00       7.180725e-02       7.180687e-02 
       1.900000e+00      -7.180681e-02       7.180687e-02 
       1.900000e+00      -7.180681e-02      -7.180720e-02 
       1.900000e+00       7.180725e-02      -7.180720e-02 
       1.900000e+00       7.180725e-02       7.180687e-02 
       1.900000e+00      -7.180681e-02       7.180687e-02 
       2.000000e+00      -7.180679e-02      -7.180722e-02 
       2.000000e+00       7.180727e-02      -7.180722e-02 
       2.000000e+00       7.180727e-02       7.180685e-02 
       2.000000e+00      -7.180679e-02       7.180685e-02 
       2.000000e+00      -7.180679e-02      -7.180722e-02 
       2.000000e+00       7.180727e-02      -7.180722e-02 
       2.000000e+00       7.180727e-02       7.180685e-02 
       2.000000e+00      -7.180679e-02       7.180685e-02 
       2.100000e+00      -7.180677e-02      -7.180723e-02 
[...]
POINT_DATA       800 
VECTORS Displacements float
      -1.79152195e-24       1.38777878e-17      -1.38777878e-17 
       7.50375133e-25       0.00000000e+00       0.00000000e+00 
       1.79152195e-24      -1.38777878e-17       1.38777878e-17 
      -7.50375133e-25       0.00000000e+00       0.00000000e+00 
       2.41237558e-10       6.85998161e-10      -5.17002940e-10 
      -1.72285122e-09       6.85998133e-10      -5.17002205e-10 
      -2.42614720e-10       6.85997426e-10      -5.17002205e-10 
       1.72147406e-09       6.85997439e-10      -5.17002940e-10 
       2.41237558e-10       6.85998161e-10      -5.17002940e-10 
      -1.72285122e-09       6.85998133e-10      -5.17002205e-10 
      -2.42614720e-10       6.85997426e-10      -5.17002205e-10 
       1.72147406e-09       6.85997439e-10      -5.17002940e-10 
       4.77826445e-10       2.72647310e-09      -2.05480800e-09 
      -3.41261200e-09       2.72647306e-09      -2.05480652e-09 
      -4.80581075e-10       2.72647166e-09      -2.05480655e-09 
       3.40985737e-09       2.72647170e-09      -2.05480803e-09 
       4.77826445e-10       2.72647310e-09      -2.05480800e-09 
      -3.41261200e-09       2.72647306e-09      -2.05480652e-09 
      -4.80581075e-10       2.72647166e-09      -2.05480655e-09 
       3.40985737e-09       2.72647170e-09      -2.05480803e-09 
       7.09766745e-10       6.09514675e-09      -4.59361069e-09 
      -5.06928222e-09       6.09514662e-09      -4.59360844e-09 
      -7.13899051e-10       6.09514456e-09      -4.59360849e-09 
       5.06514991e-09       6.09514469e-09      -4.59361074e-09 
       7.09766745e-10       6.09514675e-09      -4.59361069e-09 
      -5.06928222e-09       6.09514662e-09      -4.59360844e-09 
      -7.13899051e-10       6.09514456e-09      -4.59360849e-09 
       5.06514991e-09       6.09514469e-09      -4.59361074e-09 
       9.37058375e-10       1.07657409e-08      -8.11360641e-09 
      -6.69286210e-09       1.07657407e-08      -8.11360337e-09 
      -9.42568690e-10       1.07657380e-08      -8.11360347e-09 
       6.68735178e-09       1.07657382e-08      -8.11360651e-09 
       9.37058375e-10       1.07657409e-08      -8.11360641e-09 
      -6.69286210e-09       1.07657407e-08      -8.11360337e-09 
      -9.42568690e-10       1.07657380e-08      -8.11360347e-09 
       6.68735178e-09       1.07657382e-08      -8.11360651e-09 
       1.15970145e-09       1.67119775e-08      -1.25949907e-08 
      -8.28335145e-09       1.67119771e-08      -1.25949868e-08 
      -1.16658999e-09       1.67119738e-08      -1.25949870e-08 
       8.27646296e-09       1.67119741e-08      -1.25949908e-08 
       1.15970145e-09       1.67119775e-08      -1.25949907e-08 
      -8.28335145e-09       1.67119771e-08      -1.25949868e-08 
      -1.16658999e-09       1.67119738e-08      -1.25949870e-08 
       8.27646296e-09       1.67119741e-08      -1.25949908e-08 
       1.37769574e-09       2.39075783e-08      -1.80179589e-08 
      -9.84075033e-09       2.39075778e-08      -1.80179543e-08 
      -1.38596279e-09       2.39075738e-08      -1.80179545e-08 
       9.83248327e-09       2.39075743e-08      -1.80179592e-08 
       1.37769574e-09       2.39075783e-08      -1.80179589e-08 
      -9.84075033e-09       2.39075778e-08      -1.80179543e-08 
      -1.38596279e-09       2.39075738e-08      -1.80179545e-08 
       9.83248327e-09       2.39075743e-08      -1.80179592e-08 
       1.59104141e-09       3.23262652e-08      -2.43627066e-08 
      -1.13650587e-08       3.23262646e-08      -2.43627012e-08 
      -1.60068725e-09       3.23262600e-08      -2.43627015e-08 
       1.13554128e-08       3.23262606e-08      -2.43627070e-08 
       1.59104141e-09       3.23262652e-08      -2.43627066e-08 
      -1.13650587e-08       3.23262646e-08      -2.43627012e-08 
      -1.60068725e-09       3.23262600e-08      -2.43627015e-08 
       1.13554128e-08       3.23262606e-08      -2.43627070e-08 
       1.79973869e-09       4.19417601e-08      -3.16094293e-08 
      -1.28562766e-08       4.19417593e-08      -3.16094230e-08 
      -1.81076332e-09       4.19417541e-08      -3.16094234e-08 
       1.28452520e-08       4.19417549e-08      -3.16094297e-08 
       1.79973869e-09       4.19417601e-08      -3.16094293e-08 
      -1.28562766e-08       4.19417593e-08      -3.16094230e-08 
      -1.81076332e-09       4.19417541e-08      -3.16094234e-08 
       1.28452520e-08       4.19417549e-08      -3.16094297e-08 
       2.00378703e-09       5.27277848e-08      -3.97383223e-08 
      -1.43144041e-08       5.27277838e-08      -3.97383151e-08 
      -2.01619121e-09       5.27277781e-08      -3.97383157e-08 
       1.43019999e-08       5.27277790e-08      -3.97383228e-08 
       2.00378703e-09       5.27277848e-08      -3.97383223e-08 
      -1.43144041e-08       5.27277838e-08      -3.97383151e-08 
      -2.01619121e-09       5.27277781e-08      -3.97383157e-08 
       1.43019999e-08       5.27277790e-08      -3.97383228e-08 
       2.20318697e-09       6.46580612e-08      -4.87295812e-08 
      -1.57394411e-08       6.46580600e-08      -4.87295732e-08 
      -2.21697039e-09       6.46580537e-08      -4.87295738e-08 
       1.57256574e-08       6.46580548e-08      -4.87295818e-08 
       2.20318697e-09       6.46580612e-08      -4.87295812e-08 
      -1.57394410e-08       6.46580601e-08      -4.87295732e-08 
      -2.21697039e-09       6.46580537e-08      -4.87295738e-08 
       1.57256577e-08       6.46580548e-08      -4.87295818e-08 
       2.39842990e-09       7.77067720e-08      -5.85637487e-08 
      -1.71328822e-08       7.77067706e-08      -5.85637401e-08 
      -2.41309905e-09       7.77067640e-08      -5.85637408e-08 
       1.71182128e-08       7.77067654e-08      -5.85637495e-08 
       2.39842990e-09       7.77067720e-08      -5.85637487e-08 
      -1.71328822e-08       7.77067706e-08      -5.85637401e-08 
      -2.41309905e-09       7.77067640e-08      -5.85637408e-08 
       1.71182128e-08       7.77067654e-08      -5.85637495e-08 
       2.58951327e-09       9.18499443e-08      -6.92227577e-08 
      -1.84967159e-08       9.18499428e-08      -6.92227485e-08 
      -2.60506861e-09       9.18499359e-08      -6.92227494e-08 
       1.84811608e-08       9.18499374e-08      -6.92227586e-08 
       2.58951327e-09       9.18499443e-08      -6.92227577e-08 
      -1.84967159e-08       9.18499428e-08      -6.92227485e-08 
      -2.60506861e-09       9.18499359e-08      -6.92227494e-08 
       1.84811608e-08       9.18499374e-08      -6.92227586e-08 
       2.77643730e-09       1.07064066e-07      -8.06888883e-08 
      -1.98309429e-08       1.07064064e-07      -8.06888785e-08 
      -2.79287948e-09       1.07064057e-07      -8.06888795e-08 
       1.98145007e-08       1.07064059e-07      -8.06888893e-08 
       2.77643730e-09       1.07064066e-07      -8.06888883e-08 
      -1.98309429e-08       1.07064064e-07      -8.06888785e-08 
      -2.79287948e-09       1.07064057e-07      -8.06888795e-08 
       1.98145007e-08       1.07064059e-07      -8.06888893e-08 
       2.95920177e-09       1.23325625e-07      -9.29444207e-08 
      -2.11355626e-08       1.23325623e-07      -9.29444103e-08 
      -2.97653124e-09       1.23325616e-07      -9.29444115e-08 
       2.11182332e-08       1.23325618e-07      -9.29444219e-08 
       2.95920177e-09       1.23325625e-07      -9.29444207e-08 
      -2.11355626e-08       1.23325623e-07      -9.29444103e-08 
      -2.97653124e-09       1.23325616e-07      -9.29444115e-08 
       2.11182332e-08       1.23325618e-07      -9.29444219e-08 
       3.13780690e-09       1.40611110e-07      -1.05971635e-07 
      -2.24105756e-08       1.40611108e-07      -1.05971624e-07 
      -3.15602433e-09       1.40611100e-07      -1.05971625e-07 
       2.23923577e-08       1.40611103e-07      -1.05971636e-07 
       3.13780690e-09       1.40611110e-07      -1.05971635e-07 
      -2.24105756e-08       1.40611108e-07      -1.05971624e-07 
      -3.15602433e-09       1.40611100e-07      -1.05971625e-07 
       2.23923577e-08       1.40611103e-07      -1.05971636e-07 
       3.31225225e-09       1.58897008e-07      -1.19752811e-07 
      -2.36559812e-08       1.58897006e-07      -1.19752800e-07 
      -3.33135874e-09       1.58896998e-07      -1.19752801e-07 
       2.36368747e-08       1.58897001e-07      -1.19752813e-07 
       3.31225225e-09       1.58897008e-07      -1.19752811e-07 
      -2.36559812e-08       1.58897006e-07      -1.19752800e-07 
      -3.33135874e-09       1.58896998e-07      -1.19752801e-07 
       2.36368747e-08       1.58897001e-07      -1.19752813e-07 
       3.48253826e-09       1.78159808e-07      -1.34270230e-07 
      -2.48717795e-08       1.78159805e-07      -1.34270218e-07 
      -3.50253360e-09       1.78159797e-07      -1.34270220e-07 
       2.48517842e-08       1.78159800e-07      -1.34270232e-07 
       3.48253826e-09       1.78159808e-07      -1.34270230e-07 
      -2.48717795e-08       1.78159805e-07      -1.34270218e-07 
      -3.50253360e-09       1.78159797e-07      -1.34270220e-07 
       2.48517842e-08       1.78159800e-07      -1.34270232e-07 
       3.64866470e-09       1.98375997e-07      -1.49506171e-07 
      -2.60579709e-08       1.98375994e-07      -1.49506158e-07 
      -3.66954978e-09       1.98375986e-07      -1.49506160e-07 
       2.60370860e-08       1.98375989e-07      -1.49506173e-07 
       3.64866470e-09       1.98375997e-07      -1.49506171e-07 
      -2.60579709e-08       1.98375994e-07      -1.49506158e-07 
      -3.66954978e-09       1.98375986e-07      -1.49506160e-07 
       2.60370860e-08       1.98375989e-07      -1.49506173e-07 
       3.81063225e-09       2.19522063e-07      -1.65442915e-07 
      -2.72145551e-08       2.19522060e-07      -1.65442901e-07 
      -3.83240728e-09       2.19522052e-07      -1.65442903e-07 
       2.71927800e-08       2.19522055e-07      -1.65442917e-07 
       3.81063225e-09       2.19522063e-07      -1.65442915e-07 
      -2.72145551e-08       2.19522060e-07      -1.65442901e-07 
      -3.83240728e-09       2.19522052e-07      -1.65442903e-07 
       2.71927800e-08       2.19522055e-07      -1.65442917e-07 
       3.96843980e-09       2.41574495e-07      -1.82062741e-07 
      -2.83415325e-08       2.41574492e-07      -1.82062727e-07 
      -3.99110567e-09       2.41574483e-07      -1.82062729e-07 
       2.83188664e-08       2.41574487e-07      -1.82062743e-07 
       3.96843980e-09       2.41574495e-07      -1.82062741e-07 
      -2.83415325e-08       2.41574492e-07      -1.82062727e-07 
      -3.99110567e-09       2.41574483e-07      -1.82062729e-07 
       2.83188664e-08       2.41574487e-07      -1.82062743e-07 
       4.12250634e-09       2.64510241e-07      -1.99348278e-07 
      -2.94404705e-08       2.64510237e-07      -1.99348263e-07 
      -4.14571621e-09       2.64510229e-07      -1.99348265e-07 
       2.94172606e-08       2.64510233e-07      -1.99348280e-07 
       4.12250634e-09       2.64510241e-07      -1.99348278e-07 
      -2.94404705e-08       2.64510237e-07      -1.99348263e-07 
      -4.14571621e-09       2.64510229e-07      -1.99348265e-07 
       2.94172606e-08       2.64510233e-07      -1.99348280e-07 
       4.27290248e-09       2.88308095e-07      -2.17283542e-07 
      -3.05132848e-08       2.88308090e-07      -2.17283527e-07 
      -4.29665725e-09       2.88308082e-07      -2.17283529e-07 
       3.04895300e-08       2.88308086e-07      -2.17283544e-07 
       4.27290248e-09       2.88308095e-07      -2.17283542e-07 
      -3.05132848e-08       2.88308090e-07      -2.17283527e-07 
      -4.29665725e-09       2.88308082e-07      -2.17283529e-07 
       3.04895300e-08       2.88308086e-07      -2.17283544e-07 
       4.41962911e-09       3.12947310e-07      -2.35852899e-07 
      -3.15599746e-08       3.12947305e-07      -2.35852883e-07 
      -4.44392789e-09       3.12947297e-07      -2.35852886e-07 
       3.15356754e-08       3.12947301e-07      -2.35852901e-07 
       4.41962911e-09       3.12947310e-07      -2.35852899e-07 
      -3.15599746e-08       3.12947305e-07      -2.35852883e-07 
      -4.44392789e-09       3.12947297e-07      -2.35852886e-07 
       3.15356754e-08       3.12947301e-07      -2.35852901e-07 
       4.56268490e-09       3.38407140e-07      -2.55040713e-07 
      -3.25805414e-08       3.38407135e-07      -2.55040697e-07 
      -4.58752991e-09       3.38407127e-07      -2.55040700e-07 
       3.25556964e-08       3.38407132e-07      -2.55040716e-07 
       4.56268490e-09       3.38407140e-07      -2.55040713e-07 
      -3.25805414e-08       3.38407135e-07      -2.55040697e-07 
      -4.58752991e-09       3.38407127e-07      -2.55040700e-07 
       3.25556964e-08       3.38407132e-07      -2.55040716e-07 
       4.70207073e-09       3.64666841e-07      -2.74831349e-07 
      -3.35749841e-08       3.64666835e-07      -2.74831333e-07 
      -4.72746242e-09       3.64666827e-07      -2.74831336e-07 
       3.35495920e-08       3.64666832e-07      -2.74831352e-07 
       4.70207073e-09       3.64666841e-07      -2.74831349e-07 
      -3.35749841e-08       3.64666835e-07      -2.74831333e-07 
      -4.72746242e-09       3.64666827e-07      -2.74831336e-07 
       3.35495920e-08       3.64666832e-07      -2.74831352e-07 
       4.83778617e-09       3.91705665e-07      -2.95209173e-07 
      -3.45433029e-08       3.91705659e-07      -2.95209156e-07 
      -4.86372542e-09       3.91705651e-07      -2.95209159e-07 
       3.45173636e-08       3.91705656e-07      -2.95209176e-07 
       4.83778617e-09       3.91705665e-07      -2.95209173e-07 
      -3.45433029e-08       3.91705659e-07      -2.95209156e-07 
      -4.86372542e-09       3.91705651e-07      -2.95209159e-07 
       3.45173636e-08       3.91705656e-07      -2.95209176e-07 
       4.96983121e-09       4.19502867e-07      -3.16158548e-07 
      -3.54854981e-08       4.19502861e-07      -3.16158531e-07 
      -4.99631891e-09       4.19502853e-07      -3.16158534e-07 
       3.54590108e-08       4.19502858e-07      -3.16158551e-07 
       4.96983121e-09       4.19502867e-07      -3.16158548e-07 
      -3.54854981e-08       4.19502861e-07      -3.16158531e-07 
      -4.99631891e-09       4.19502853e-07      -3.16158534e-07 
       3.54590108e-08       4.19502858e-07      -3.16158551e-07 
       5.09820719e-09       4.48037701e-07      -3.37663840e-07 
      -3.64015689e-08       4.48037695e-07      -3.37663823e-07 
      -5.12524201e-09       4.48037686e-07      -3.37663826e-07 
       3.63745336e-08       4.48037692e-07      -3.37663844e-07 
       5.09820719e-09       4.48037701e-07      -3.37663840e-07 
      -3.64015689e-08       4.48037695e-07      -3.37663823e-07 
      -5.12524201e-09       4.48037686e-07      -3.37663826e-07 
       3.63745336e-08       4.48037692e-07      -3.37663844e-07 
       5.22291188e-09       4.77289421e-07      -3.59709414e-07 
      -3.72915161e-08       4.77289415e-07      -3.59709396e-07 
      -5.25049604e-09       4.77289406e-07      -3.59709399e-07 
       3.72639319e-08       4.77289413e-07      -3.59709417e-07 
       5.22291188e-09       4.77289421e-07      -3.59709414e-07 
      -3.72915161e-08       4.77289415e-07      -3.59709396e-07 
      -5.25049604e-09       4.77289406e-07      -3.59709399e-07 
       3.72639319e-08       4.77289413e-07      -3.59709417e-07 
       5.34394662e-09       5.07237282e-07      -3.82279634e-07 
      -3.81553398e-08       5.07237275e-07      -3.82279616e-07 
      -5.37208056e-09       5.07237267e-07      -3.82279619e-07 
       3.81272054e-08       5.07237273e-07      -3.82279638e-07 
       5.34394662e-09       5.07237282e-07      -3.82279634e-07 
      -3.81553398e-08       5.07237275e-07      -3.82279616e-07 
      -5.37208056e-09       5.07237267e-07      -3.82279619e-07 
       3.81272058e-08       5.07237273e-07      -3.82279638e-07 
       5.46167245e-09       5.37860997e-07      -4.05359213e-07 
      -3.89946644e-08       5.37860991e-07      -4.05359194e-07 
      -5.49012391e-09       5.37860982e-07      -4.05359198e-07 
       3.89662129e-08       5.37860989e-07      -4.05359217e-07 
       5.46167245e-09       5.37860997e-07      -4.05359213e-07 
      -3.89946644e-08       5.37860991e-07      -4.05359194e-07 
      -5.49012391e-09       5.37860982e-07      -4.05359198e-07 
       3.89662129e-08       5.37860989e-07      -4.05359217e-07 
       5.57621727e-09       5.69142128e-07      -4.28934252e-07 
      -3.98113484e-08       5.69142121e-07      -4.28934233e-07 
      -5.60498670e-09       5.69142112e-07      -4.28934237e-07 
       3.97825790e-08       5.69142119e-07      -4.28934257e-07 
       5.57621727e-09       5.69142128e-07      -4.28934252e-07 
      -3.98113484e-08       5.69142121e-07      -4.28934233e-07 
      -5.60498670e-09       5.69142112e-07      -4.28934237e-07 
       3.97825790e-08       5.69142119e-07      -4.28934257e-07 
       5.68758196e-09       6.01062693e-07      -4.52991202e-07 
      -4.06053915e-08       6.01062685e-07      -4.52991183e-07 
      -5.71666892e-09       6.01062677e-07      -4.52991187e-07 
       4.05763045e-08       6.01062685e-07      -4.52991207e-07 
       5.68758196e-09       6.01062693e-07      -4.52991202e-07 
      -4.06053915e-08       6.01062685e-07      -4.52991183e-07 
      -5.71666892e-09       6.01062677e-07      -4.52991187e-07 
       4.05763045e-08       6.01062685e-07      -4.52991207e-07 
       5.79576476e-09       6.33604713e-07      -4.77516512e-07 
      -4.13767944e-08       6.33604705e-07      -4.77516492e-07 
      -5.82517146e-09       6.33604697e-07      -4.77516497e-07 
       4.13473882e-08       6.33604705e-07      -4.77516517e-07 
       5.79576476e-09       6.33604713e-07      -4.77516512e-07 
      -4.13767944e-08       6.33604705e-07      -4.77516492e-07 
      -5.82517146e-09       6.33604697e-07      -4.77516497e-07 
       4.13473882e-08       6.33604705e-07      -4.77516517e-07 
       5.90076699e-09       6.66750208e-07      -5.02496631e-07 
      -4.21255568e-08       6.66750200e-07      -5.02496611e-07 
      -5.93049343e-09       6.66750192e-07      -5.02496616e-07 
       4.20958304e-08       6.66750200e-07      -5.02496636e-07 
       5.90076699e-09       6.66750208e-07      -5.02496631e-07 
      -4.21255568e-08       6.66750200e-07      -5.02496611e-07 
      -5.93049343e-09       6.66750192e-07      -5.02496616e-07 
       4.20958304e-08       6.66750200e-07      -5.02496636e-07 
       6.00258865e-09       7.00481199e-07      -5.27918009e-07 
      -4.28516782e-08       7.00481190e-07      -5.27917989e-07 
      -6.03263572e-09       7.00481183e-07      -5.27917994e-07 
       4.28216311e-08       7.00481191e-07      -5.27918014e-07 
       6.00258865e-09       7.00481199e-07      -5.27918009e-07 
      -4.28516782e-08       7.00481190e-07      -5.27917989e-07 
      -6.03263572e-09       7.00481183e-07      -5.27917994e-07 
       4.28216311e-08       7.00481191e-07      -5.27918014e-07 
       6.10122930e-09       7.34779705e-07      -5.53767096e-07 
      -4.35551595e-08       7.34779697e-07      -5.53767075e-07 
      -6.13159745e-09       7.34779689e-07      -5.53767080e-07 
       4.35247913e-08       7.34779697e-07      -5.53767101e-07 
       6.10122930e-09       7.34779705e-07      -5.53767096e-07 
      -4.35551595e-08       7.34779697e-07      -5.53767075e-07 
      -6.13159745e-09       7.34779689e-07      -5.53767080e-07 
       4.35247913e-08       7.34779697e-07      -5.53767101e-07 
       6.19668938e-09       7.69627747e-07      -5.80030341e-07 
      -4.42359993e-08       7.69627738e-07      -5.80030319e-07 
      -6.22737817e-09       7.69627731e-07      -5.80030324e-07 
       4.42053101e-08       7.69627740e-07      -5.80030346e-07 
       6.19668938e-09       7.69627747e-07      -5.80030341e-07 
      -4.42359993e-08       7.69627738e-07      -5.80030319e-07 