# vtk DataFile Version 2.0
./output/onsasExample_nonLinearCantileverBlade_staitc3D_no_pitch numElements=10/onsasExample_nonLinearCantileverBlade_staitc3D_no_pitch numElements=10_0025.vtk
ASCII
DATASET UNSTRUCTURED_GRID

POINTS 800 float
       9.706223e-25      -7.180703e-02      -7.180703e-02 
       7.599494e-25       7.180703e-02      -7.180703e-02 
      -9.706223e-25       7.180703e-02       7.180703e-02 
      -7.599494e-25      -7.180703e-02       7.180703e-02 
       1.000000e-01      -7.180703e-02      -7.180703e-02 
       1.000000e-01       7.180703e-02      -7.180703e-02 
       1.000000e-01       7.180703e-02       7.180703e-02 
       1.000000e-01      -7.180703e-02       7.180703e-02 
       1.000000e-01      -7.180703e-02      -7.180703e-02 
       1.000000e-01       7.180703e-02      -7.180703e-02 
       1.000000e-01       7.180703e-02       7.180703e-02 
       1.000000e-01      -7.180703e-02       7.180703e-02 
       2.000000e-01      -7.180703e-02      -7.180703e-02 
       2.000000e-01       7.180703e-02      -7.180703e-02 
       2.000000e-01       7.180703e-02       7.180704e-02 
       2.000000e-01      -7.180703e-02       7.180704e-02 
       2.000000e-01      -7.180703e-02      -7.180703e-02 
       2.000000e-01       7.180703e-02      -7.180703e-02 
       2.000000e-01       7.180703e-02       7.180704e-02 
       2.000000e-01      -7.180703e-02       7.180704e-02 
       3.000000e-01      -7.180703e-02      -7.180703e-02 
       3.000000e-01       7.180704e-02      -7.180703e-02 
       3.000000e-01       7.180704e-02       7.180704e-02 
       3.000000e-01      -7.180703e-02       7.180704e-02 
       3.000000e-01      -7.180703e-02      -7.180703e-02 
       3.000000e-01       7.180704e-02      -7.180703e-02 
       3.000000e-01       7.180704e-02       7.180704e-02 
       3.000000e-01      -7.180703e-02       7.180704e-02 
       4.000000e-01      -7.180703e-02      -7.180702e-02 
       4.000000e-01       7.180704e-02      -7.180702e-02 
       4.000000e-01       7.180704e-02       7.180705e-02 
       4.000000e-01      -7.180703e-02       7.180705e-02 
       4.000000e-01      -7.180703e-02      -7.180702e-02 
       4.000000e-01       7.180704e-02      -7.180702e-02 
       4.000000e-01       7.180704e-02       7.180705e-02 
       4.000000e-01      -7.180703e-02       7.180705e-02 
       5.000000e-01      -7.180702e-02      -7.180701e-02 
       5.000000e-01       7.180704e-02      -7.180701e-02 
       5.000000e-01       7.180704e-02       7.180705e-02 
       5.000000e-01      -7.180702e-02       7.180705e-02 
       5.000000e-01      -7.180702e-02      -7.180701e-02 
       5.000000e-01       7.180704e-02      -7.180701e-02 
       5.000000e-01       7.180704e-02       7.180705e-02 
       5.000000e-01      -7.180702e-02       7.180705e-02 
       6.000000e-01      -7.180702e-02      -7.180700e-02 
       6.000000e-01       7.180705e-02      -7.180700e-02 
       6.000000e-01       7.180705e-02       7.180706e-02 
       6.000000e-01      -7.180702e-02       7.180706e-02 
       6.000000e-01      -7.180702e-02      -7.180700e-02 
       6.000000e-01       7.180705e-02      -7.180700e-02 
       6.000000e-01       7.180705e-02       7.180706e-02 
       6.000000e-01      -7.180702e-02       7.180706e-02 
       7.000000e-01      -7.180701e-02      -7.180699e-02 
       7.000000e-01       7.180706e-02      -7.180699e-02 
       7.000000e-01       7.180706e-02       7.180707e-02 
       7.000000e-01      -7.180701e-02       7.180707e-02 
       7.000000e-01      -7.180701e-02      -7.180699e-02 
       7.000000e-01       7.180706e-02      -7.180699e-02 
       7.000000e-01       7.180706e-02       7.180707e-02 
       7.000000e-01      -7.180701e-02       7.180707e-02 
       8.000000e-01      -7.180700e-02      -7.180698e-02 
       8.000000e-01       7.180706e-02      -7.180698e-02 
       8.000000e-01       7.180706e-02       7.180708e-02 
       8.000000e-01      -7.180700e-02       7.180708e-02 
       8.000000e-01      -7.180700e-02      -7.180698e-02 
       8.000000e-01       7.180706e-02      -7.180698e-02 
       8.000000e-01       7.180706e-02       7.180708e-02 
       8.000000e-01      -7.180700e-02       7.180708e-02 
       9.000000e-01      -7.180700e-02      -7.180697e-02 
       9.000000e-01       7.180707e-02      -7.180697e-02 
       9.000000e-01       7.180707e-02       7.180710e-02 
       9.000000e-01      -7.180700e-02       7.180710e-02 
       9.000000e-01      -7.180700e-02      -7.180697e-02 
       9.000000e-01       7.180707e-02      -7.180697e-02 
       9.000000e-01       7.180707e-02       7.180710e-02 
       9.000000e-01      -7.180700e-02       7.180710e-02 
       1.000000e+00      -7.180699e-02      -7.180695e-02 
       1.000000e+00       7.180708e-02      -7.180695e-02 
       1.000000e+00       7.180708e-02       7.180711e-02 
       1.000000e+00      -7.180699e-02       7.180711e-02 
       1.000000e+00      -7.180699e-02      -7.180695e-02 
       1.000000e+00       7.180708e-02      -7.180695e-02 
       1.000000e+00       7.180708e-02       7.180711e-02 
       1.000000e+00      -7.180699e-02       7.180711e-02 
       1.100000e+00      -7.180698e-02      -7.180694e-02 
       1.100000e+00       7.180709e-02      -7.180694e-02 
       1.100000e+00       7.180709e-02       7.180713e-02 
       1.100000e+00      -7.180698e-02       7.180713e-02 
       1.100000e+00      -7.180698e-02      -7.180694e-02 
       1.100000e+00       7.180709e-02      -7.180694e-02 
       1.100000e+00       7.180709e-02       7.180713e-02 
       1.100000e+00      -7.180698e-02       7.180713e-02 
       1.200000e+00      -7.180697e-02      -7.180692e-02 
       1.200000e+00       7.180710e-02      -7.180692e-02 
       1.200000e+00       7.180710e-02       7.180715e-02 
       1.200000e+00      -7.180697e-02       7.180715e-02 
       1.200000e+00      -7.180697e-02      -7.180692e-02 
       1.200000e+00       7.180710e-02      -7.180692e-02 
       1.200000e+00       7.180710e-02       7.180715e-02 
       1.200000e+00      -7.180697e-02       7.180715e-02 
       1.300000e+00      -7.180696e-02      -7.180690e-02 
       1.300000e+00       7.180711e-02      -7.180690e-02 
       1.300000e+00       7.180711e-02       7.180716e-02 
       1.300000e+00      -7.180696e-02       7.180716e-02 
       1.300000e+00      -7.180696e-02      -7.180690e-02 
       1.300000e+00       7.180711e-02      -7.180690e-02 
       1.300000e+00       7.180711e-02       7.180716e-02 
       1.300000e+00      -7.180696e-02       7.180716e-02 
       1.400000e+00      -7.180695e-02      -7.180688e-02 
       1.400000e+00       7.180712e-02      -7.180688e-02 
       1.400000e+00       7.180712e-02       7.180719e-02 
       1.400000e+00      -7.180695e-02       7.180719e-02 
       1.400000e+00      -7.180695e-02      -7.180688e-02 
       1.400000e+00       7.180712e-02      -7.180688e-02 
       1.400000e+00       7.180712e-02       7.180719e-02 
       1.400000e+00      -7.180695e-02       7.180719e-02 
       1.500000e+00      -7.180694e-02      -7.180686e-02 
       1.500000e+00       7.180713e-02      -7.180686e-02 
       1.500000e+00       7.180713e-02       7.180721e-02 
       1.500000e+00      -7.180694e-02       7.180721e-02 
       1.500000e+00      -7.180694e-02      -7.180686e-02 
       1.500000e+00       7.180713e-02      -7.180686e-02 
       1.500000e+00       7.180713e-02       7.180721e-02 
       1.500000e+00      -7.180694e-02       7.180721e-02 
       1.600000e+00      -7.180692e-02      -7.180684e-02 
       1.600000e+00       7.180714e-02      -7.180684e-02 
       1.600000e+00       7.180714e-02       7.180723e-02 
       1.600000e+00      -7.180692e-02       7.180723e-02 
       1.600000e+00      -7.180692e-02      -7.180684e-02 
       1.600000e+00       7.180714e-02      -7.180684e-02 
       1.600000e+00       7.180714e-02       7.180723e-02 
       1.600000e+00      -7.180692e-02       7.180723e-02 
       1.700000e+00      -7.180691e-02      -7.180681e-02 
       1.700000e+00       7.180716e-02      -7.180681e-02 
       1.700000e+00       7.180716e-02       7.180725e-02 
       1.700000e+00      -7.180691e-02       7.180725e-02 
       1.700000e+00      -7.180691e-02      -7.180681e-02 
       1.700000e+00       7.180716e-02      -7.180681e-02 
       1.700000e+00       7.180716e-02       7.180725e-02 
       1.700000e+00      -7.180691e-02       7.180725e-02 
       1.800000e+00      -7.180690e-02      -7.180679e-02 
       1.800000e+00       7.180717e-02      -7.180679e-02 
       1.800000e+00       7.180717e-02       7.180728e-02 
       1.800000e+00      -7.180690e-02       7.180728e-02 
       1.800000e+00      -7.180690e-02      -7.180679e-02 
       1.800000e+00       7.180717e-02      -7.180679e-02 
       1.800000e+00       7.180717e-02       7.180728e-02 
       1.800000e+00      -7.180690e-02       7.180728e-02 
       1.900000e+00      -7.180688e-02      -7.180676e-02 
       1.900000e+00       7.180718e-02      -7.180676e-02 
       1.900000e+00       7.180718e-02       7.180730e-02 
       1.900000e+00      -7.180688e-02       7.180730e-02 
       1.900000e+00      -7.180688e-02      -7.180676e-02 
       1.900000e+00       7.180718e-02      -7.180676e-02 
       1.900000e+00       7.180718e-02       7.180730e-02 
       1.900000e+00      -7.180688e-02       7.180730e-02 
       2.000000e+00      -7.180687e-02      -7.180674e-02 
       2.000000e+00       7.180720e-02      -7.180674e-02 
       2.000000e+00       7.180720e-02       7.180733e-02 
       2.000000e+00      -7.180687e-02       7.180733e-02 
       2.000000e+00      -7.180687e-02      -7.180674e-02 
       2.000000e+00       7.180720e-02      -7.180674e-02 
       2.000000e+00       7.180720e-02       7.180733e-02 
       2.000000e+00      -7.180687e-02       7.180733e-02 
       2.100000e+00      -7.180685e-02      -7.180671e-02 
[...]
POINT_DATA       800 
VECTORS Displacements float
       9.70622332e-25       0.00000000e+00       0.00000000e+00 
       7.59949447e-25       0.00000000e+00      -1.38777878e-17 
      -9.70622332e-25       0.00000000e+00       0.00000000e+00 
      -7.59949447e-25       0.00000000e+00       1.38777878e-17 
       1.88342228e-09       4.70712677e-10       8.45193790e-10 
       5.35717831e-10       4.70712677e-10       8.45192985e-10 
      -1.88416582e-09       4.70713468e-10       8.45192957e-10 
      -5.36461375e-10       4.70713468e-10       8.45193776e-10 
       1.88342228e-09       4.70712677e-10       8.45193790e-10 
       5.35717831e-10       4.70712677e-10       8.45192985e-10 
      -1.88416582e-09       4.70713468e-10       8.45192957e-10 
      -5.36461375e-10       4.70713468e-10       8.45193776e-10 
       3.73064812e-09       1.87083063e-09       3.35919015e-09 
       1.06113476e-09       1.87083060e-09       3.35918848e-09 
      -3.73213555e-09       1.87083217e-09       3.35918841e-09 
      -1.06262218e-09       1.87083221e-09       3.35919008e-09 
       3.73064812e-09       1.87083063e-09       3.35919015e-09 
       1.06113476e-09       1.87083060e-09       3.35918848e-09 
      -3.73213555e-09       1.87083217e-09       3.35918841e-09 
      -1.06262218e-09       1.87083221e-09       3.35919008e-09 
       5.54167739e-09       4.18232250e-09       7.50961268e-09 
       1.57625074e-09       4.18232245e-09       7.50961016e-09 
      -5.54390917e-09       4.18232478e-09       7.50960999e-09 
      -1.57848251e-09       4.18232483e-09       7.50961250e-09 
       5.54167739e-09       4.18232250e-09       7.50961268e-09 
       1.57625074e-09       4.18232245e-09       7.50961016e-09 
      -5.54390917e-09       4.18232478e-09       7.50960999e-09 
      -1.57848251e-09       4.18232483e-09       7.50961250e-09 
       7.31651034e-09       7.38715696e-09       1.32640850e-08 
       2.08106588e-09       7.38715686e-09       1.32640816e-08 
      -7.31948663e-09       7.38715991e-09       1.32640813e-08 
      -2.08404216e-09       7.38716001e-09       1.32640847e-08 
       7.31651034e-09       7.38715696e-09       1.32640850e-08 
       2.08106588e-09       7.38715686e-09       1.32640816e-08 
      -7.31948663e-09       7.38715991e-09       1.32640813e-08 
      -2.08404216e-09       7.38716001e-09       1.32640847e-08 
       9.05514685e-09       1.14673026e-08       2.05902308e-08 
       2.57558008e-09       1.14673025e-08       2.05902266e-08 
      -9.05886804e-09       1.14673062e-08       2.05902261e-08 
      -2.57930138e-09       1.14673064e-08       2.05902304e-08 
       9.05514685e-09       1.14673026e-08       2.05902308e-08 
       2.57558008e-09       1.14673025e-08       2.05902266e-08 
      -9.05886804e-09       1.14673062e-08       2.05902261e-08 
      -2.57930138e-09       1.14673064e-08       2.05902304e-08 
       1.07575868e-08       1.64047282e-08       2.94556738e-08 
       3.05979353e-09       1.64047280e-08       2.94556686e-08 
      -1.07620534e-08       1.64047324e-08       2.94556679e-08 
      -3.06426007e-09       1.64047326e-08       2.94556731e-08 
       1.07575868e-08       1.64047282e-08       2.94556738e-08 
       3.05979353e-09       1.64047280e-08       2.94556686e-08 
      -1.07620534e-08       1.64047324e-08       2.94556679e-08 
      -3.06426007e-09       1.64047326e-08       2.94556731e-08 
       1.24238305e-08       2.21814022e-08       3.98280375e-08 
       3.53370588e-09       2.21814020e-08       3.98280313e-08 
      -1.24290426e-08       2.21814071e-08       3.98280304e-08 
      -3.53891794e-09       2.21814074e-08       3.98280366e-08 
       1.24238305e-08       2.21814022e-08       3.98280375e-08 
       3.53370588e-09       2.21814020e-08       3.98280313e-08 
      -1.24290426e-08       2.21814071e-08       3.98280304e-08 
      -3.53891794e-09       2.21814074e-08       3.98280366e-08 
       1.40538777e-08       2.87792935e-08       5.16749455e-08 
       3.99731748e-09       2.87792931e-08       5.16749384e-08 
      -1.40598356e-08       2.87792990e-08       5.16749373e-08 
      -4.00327538e-09       2.87792993e-08       5.16749444e-08 
       1.40538777e-08       2.87792935e-08       5.16749455e-08 
       3.99731748e-09       2.87792931e-08       5.16749384e-08 
      -1.40598356e-08       2.87792990e-08       5.16749373e-08 
      -4.00327538e-09       2.87792993e-08       5.16749444e-08 
       1.56477284e-08       3.61803706e-08       6.49640216e-08 
       4.45062820e-09       3.61803701e-08       6.49640135e-08 
      -1.56544324e-08       3.61803766e-08       6.49640121e-08 
      -4.45733217e-09       3.61803771e-08       6.49640202e-08 
       1.56477284e-08       3.61803706e-08       6.49640216e-08 
       4.45062820e-09       3.61803701e-08       6.49640135e-08 
      -1.56544324e-08       3.61803766e-08       6.49640121e-08 
      -4.45733217e-09       3.61803771e-08       6.49640202e-08 
       1.72053827e-08       4.43666021e-08       7.96628893e-08 
       4.89363794e-09       4.43666016e-08       7.96628803e-08 
      -1.72128332e-08       4.43666087e-08       7.96628786e-08 
      -4.90108842e-09       4.43666093e-08       7.96628876e-08 
       1.72053827e-08       4.43666021e-08       7.96628893e-08 
       4.89363794e-09       4.43666016e-08       7.96628803e-08 
      -1.72128333e-08       4.43666087e-08       7.96628786e-08 
      -4.90108854e-09       4.43666093e-08       7.96628876e-08 
       1.87288789e-08       5.33202734e-08       9.57397402e-08 
       5.32702238e-09       5.33202727e-08       9.57397305e-08 
      -1.87368097e-08       5.33202801e-08       9.57397285e-08 
      -5.33495315e-09       5.33202808e-08       9.57397382e-08 
       1.87288789e-08       5.33202734e-08       9.57397402e-08 
       5.32702238e-09       5.33202727e-08       9.57397305e-08 
      -1.87368097e-08       5.33202801e-08       9.57397285e-08 
      -5.33495315e-09       5.33202808e-08       9.57397382e-08 
       2.02199888e-08       6.30249344e-08       1.13165038e-07 
       5.75119019e-09       6.30249337e-08       1.13165028e-07 
      -2.02284003e-08       6.30249413e-08       1.13165025e-07 
      -5.75960146e-09       6.30249421e-08       1.13165036e-07 
       2.02199888e-08       6.30249344e-08       1.13165038e-07 
       5.75119019e-09       6.30249337e-08       1.13165028e-07 
      -2.02284003e-08       6.30249413e-08       1.13165025e-07 
      -5.75960146e-09       6.30249421e-08       1.13165036e-07 
       2.16787119e-08       7.34644519e-08       1.31909815e-07 
       6.16614071e-09       7.34644511e-08       1.31909804e-07 
      -2.16876050e-08       7.34644590e-08       1.31909801e-07 
      -6.17503404e-09       7.34644599e-08       1.31909812e-07 
       2.16787119e-08       7.34644519e-08       1.31909815e-07 
       6.16614071e-09       7.34644511e-08       1.31909804e-07 
      -2.16876050e-08       7.34644590e-08       1.31909801e-07 
      -6.17503404e-09       7.34644599e-08       1.31909812e-07 
       2.31050488e-08       8.46226927e-08       1.51945101e-07 
       6.57187482e-09       8.46226917e-08       1.51945090e-07 
      -2.31144242e-08       8.46226999e-08       1.51945087e-07 
      -6.58125021e-09       8.46227009e-08       1.51945098e-07 
       2.31050488e-08       8.46226927e-08       1.51945101e-07 
       6.57187482e-09       8.46226917e-08       1.51945090e-07 
      -2.31144242e-08       8.46226999e-08       1.51945087e-07 
      -6.58125021e-09       8.46227009e-08       1.51945098e-07 
       2.44989988e-08       9.64835233e-08       1.73241930e-07 
       6.96839209e-09       9.64835222e-08       1.73241918e-07 
      -2.45088576e-08       9.64835307e-08       1.73241914e-07 
      -6.97825064e-09       9.64835317e-08       1.73241927e-07 
       2.44989988e-08       9.64835233e-08       1.73241930e-07 
       6.96839209e-09       9.64835222e-08       1.73241918e-07 
      -2.45088576e-08       9.64835307e-08       1.73241914e-07 
      -6.97825064e-09       9.64835317e-08       1.73241927e-07 
       2.58605624e-08       1.09030810e-07       1.95771333e-07 
       7.35569206e-09       1.09030809e-07       1.95771320e-07 
      -2.58709052e-08       1.09030818e-07       1.95771316e-07 
      -7.36603489e-09       1.09030819e-07       1.95771329e-07 
       2.58605624e-08       1.09030810e-07       1.95771333e-07 
       7.35569206e-09       1.09030809e-07       1.95771320e-07 
      -2.58709052e-08       1.09030818e-07       1.95771316e-07 
      -7.36603489e-09       1.09030819e-07       1.95771329e-07 
       2.71897398e-08       1.22248421e-07       2.19504341e-07 
       7.73377606e-09       1.22248420e-07       2.19504327e-07 
      -2.72005667e-08       1.22248429e-07       2.19504323e-07 
      -7.74460296e-09       1.22248430e-07       2.19504336e-07 
       2.71897398e-08       1.22248421e-07       2.19504341e-07 
       7.73377606e-09       1.22248420e-07       2.19504327e-07 
      -2.72005667e-08       1.22248429e-07       2.19504323e-07 
      -7.74460296e-09       1.22248430e-07       2.19504336e-07 
       2.84865305e-08       1.36120221e-07       2.44411986e-07 
       8.10264256e-09       1.36120220e-07       2.44411971e-07 
      -2.84978428e-08       1.36120229e-07       2.44411967e-07 
      -8.11395484e-09       1.36120231e-07       2.44411981e-07 
       2.84865305e-08       1.36120221e-07       2.44411986e-07 
       8.10264256e-09       1.36120220e-07       2.44411971e-07 
      -2.84978428e-08       1.36120229e-07       2.44411967e-07 
      -8.11395484e-09       1.36120231e-07       2.44411981e-07 
       2.97509350e-08       1.50630078e-07       2.70465299e-07 
       8.46229287e-09       1.50630077e-07       2.70465284e-07 
      -2.97627327e-08       1.50630086e-07       2.70465279e-07 
      -8.47409054e-09       1.50630088e-07       2.70465294e-07 
       2.97509350e-08       1.50630078e-07       2.70465299e-07 
       8.46229287e-09       1.50630077e-07       2.70465284e-07 
      -2.97627327e-08       1.50630086e-07       2.70465279e-07 
      -8.47409054e-09       1.50630088e-07       2.70465294e-07 
       3.09829526e-08       1.65761859e-07       2.97635313e-07 
       8.81272610e-09       1.65761857e-07       2.97635298e-07 
      -3.09952370e-08       1.65761867e-07       2.97635292e-07 
      -8.82501050e-09       1.65761868e-07       2.97635308e-07 
       3.09829526e-08       1.65761859e-07       2.97635313e-07 
       8.81272610e-09       1.65761857e-07       2.97635298e-07 
      -3.09952370e-08       1.65761867e-07       2.97635292e-07 
      -8.82501050e-09       1.65761868e-07       2.97635308e-07 
       3.21845826e-08       1.81499746e-07       3.25893627e-07 
       9.15457843e-09       1.81499744e-07       3.25893611e-07 
      -3.21971667e-08       1.81499753e-07       3.25893605e-07 
      -9.16716258e-09       1.81499755e-07       3.25893621e-07 
       3.21845826e-08       1.81499746e-07       3.25893627e-07 
       9.15457843e-09       1.81499744e-07       3.25893611e-07 
      -3.21971667e-08       1.81499753e-07       3.25893605e-07 
      -9.16716258e-09       1.81499755e-07       3.25893621e-07 
       3.33576362e-08       1.97829187e-07       3.55214113e-07 
       9.48829815e-09       1.97829185e-07       3.55214096e-07 
      -3.33705210e-08       1.97829195e-07       3.55214090e-07 
      -9.50118295e-09       1.97829197e-07       3.55214107e-07 
       3.33576362e-08       1.97829187e-07       3.55214113e-07 
       9.48829815e-09       1.97829185e-07       3.55214096e-07 
      -3.33705210e-08       1.97829195e-07       3.55214090e-07 
      -9.50118295e-09       1.97829197e-07       3.55214107e-07 
       3.45021141e-08       2.14735948e-07       3.85571210e-07 
       9.81388570e-09       2.14735946e-07       3.85571193e-07 
      -3.45152995e-08       2.14735956e-07       3.85571186e-07 
      -9.82707116e-09       2.14735958e-07       3.85571204e-07 
       3.45021141e-08       2.14735948e-07       3.85571210e-07 
       9.81388570e-09       2.14735946e-07       3.85571193e-07 
      -3.45152995e-08       2.14735956e-07       3.85571186e-07 
      -9.82707116e-09       2.14735958e-07       3.85571204e-07 
       3.56180148e-08       2.32205794e-07       4.16939359e-07 
       1.01313402e-08       2.32205791e-07       4.16939341e-07 
      -3.56315026e-08       2.32205801e-07       4.16939334e-07 
      -1.01448281e-08       2.32205803e-07       4.16939352e-07 
       3.56180148e-08       2.32205794e-07       4.16939359e-07 
       1.01313402e-08       2.32205791e-07       4.16939341e-07 
      -3.56315026e-08       2.32205801e-07       4.16939334e-07 
      -1.01448281e-08       2.32205803e-07       4.16939352e-07 
       3.67053388e-08       2.50224488e-07       4.49292998e-07 
       1.04406621e-08       2.50224485e-07       4.49292980e-07 
      -3.67191304e-08       2.50224495e-07       4.49292972e-07 
      -1.04544533e-08       2.50224497e-07       4.49292991e-07 
       3.67053388e-08       2.50224488e-07       4.49292998e-07 
       1.04406621e-08       2.50224485e-07       4.49292980e-07 
      -3.67191304e-08       2.50224495e-07       4.49292972e-07 
      -1.04544533e-08       2.50224497e-07       4.49292991e-07 
       3.77640865e-08       2.68777795e-07       4.82606569e-07 
       1.07418514e-08       2.68777793e-07       4.82606550e-07 
      -3.77781824e-08       2.68777803e-07       4.82606542e-07 
      -1.07559468e-08       2.68777805e-07       4.82606560e-07 
       3.77640865e-08       2.68777795e-07       4.82606569e-07 
       1.07418514e-08       2.68777793e-07       4.82606550e-07 
      -3.77781824e-08       2.68777803e-07       4.82606542e-07 
      -1.07559468e-08       2.68777805e-07       4.82606560e-07 
       3.87942580e-08       2.87851482e-07       5.16854509e-07 
       1.10349081e-08       2.87851479e-07       5.16854490e-07 
      -3.88086585e-08       2.87851489e-07       5.16854481e-07 
      -1.10493086e-08       2.87851491e-07       5.16854500e-07 
       3.87942580e-08       2.87851482e-07       5.16854509e-07 
       1.10349081e-08       2.87851479e-07       5.16854490e-07 
      -3.88086585e-08       2.87851489e-07       5.16854481e-07 
      -1.10493086e-08       2.87851491e-07       5.16854500e-07 
       3.97958537e-08       3.07431311e-07       5.52011260e-07 
       1.13198331e-08       3.07431308e-07       5.52011240e-07 
      -3.98105588e-08       3.07431318e-07       5.52011231e-07 
      -1.13345382e-08       3.07431321e-07       5.52011251e-07 
       3.97958537e-08       3.07431311e-07       5.52011260e-07 
       1.13198331e-08       3.07431308e-07       5.52011240e-07 
      -3.98105588e-08       3.07431318e-07       5.52011231e-07 
      -1.13345382e-08       3.07431321e-07       5.52011251e-07 
       4.07688723e-08       3.27503048e-07       5.88051260e-07 
       1.15966245e-08       3.27503045e-07       5.88051240e-07 
      -4.07838843e-08       3.27503055e-07       5.88051230e-07 
      -1.16116365e-08       3.27503058e-07       5.88051251e-07 
       4.07688723e-08       3.27503048e-07       5.88051260e-07 
       1.15966245e-08       3.27503045e-07       5.88051240e-07 
      -4.07838843e-08       3.27503055e-07       5.88051230e-07 
      -1.16116365e-08       3.27503058e-07       5.88051251e-07 
       4.17133146e-08       3.48052458e-07       6.24948950e-07 
       1.18652839e-08       3.48052455e-07       6.24948929e-07 
      -4.17286334e-08       3.48052464e-07       6.24948919e-07 
      -1.18806032e-08       3.48052467e-07       6.24948940e-07 
       4.17133141e-08       3.48052458e-07       6.24948950e-07 
       1.18652839e-08       3.48052455e-07       6.24948929e-07 
      -4.17286334e-08       3.48052464e-07       6.24948919e-07 
      -1.18806032e-08       3.48052467e-07       6.24948940e-07 
       4.26311484e-08       3.69065621e-07       6.62679337e-07 
       1.21264154e-08       3.69065618e-07       6.62679316e-07 
      -4.26466498e-08       3.69065627e-07       6.62679305e-07 
      -1.21419172e-08       3.69065630e-07       6.62679327e-07 
       4.26311484e-08       3.69065621e-07       6.62679337e-07 
       1.21264154e-08       3.69065618e-07       6.62679316e-07 
      -4.26466498e-08       3.69065627e-07       6.62679305e-07 
      -1.21419172e-08       3.69065630e-07       6.62679327e-07 
       4.35242158e-08       3.90529884e-07       7.01219701e-07 
       1.23804988e-08       3.90529881e-07       7.01219680e-07 
      -4.35399001e-08       3.90529890e-07       7.01219669e-07 
      -1.23961836e-08       3.90529894e-07       7.01219690e-07 
       4.35242158e-08       3.90529884e-07       7.01219701e-07 
       1.23804988e-08       3.90529881e-07       7.01219680e-07 
      -4.35399001e-08       3.90529890e-07       7.01219669e-07 
      -1.23961836e-08       3.90529894e-07       7.01219690e-07 
       4.43925177e-08       4.12432910e-07       7.40547890e-07 
       1.26275346e-08       4.12432907e-07       7.40547868e-07 
      -4.44083845e-08       4.12432916e-07       7.40547857e-07 
      -1.26434019e-08       4.12432920e-07       7.40547879e-07 
       4.43925177e-08       4.12432910e-07       7.40547890e-07 
       1.26275346e-08       4.12432907e-07       7.40547868e-07 
      -4.44083845e-08       4.12432916e-07       7.40547857e-07 
      -1.26434019e-08       4.12432920e-07       7.40547879e-07 
       4.52360522e-08       4.34762362e-07       7.80641751e-07 
       1.28675217e-08       4.34762358e-07       7.80641729e-07 
      -4.52521043e-08       4.34762367e-07       7.80641717e-07 
      -1.28835738e-08       4.34762371e-07       7.80641739e-07 
       4.52360522e-08       4.34762362e-07       7.80641751e-07 
       1.28675217e-08       4.34762358e-07       7.80641729e-07 
      -4.52521043e-08       4.34762367e-07       7.80641717e-07 
      -1.28835738e-08       4.34762371e-07       7.80641739e-07 
       4.60548213e-08       4.57505902e-07       8.21479133e-07 
       1.31004603e-08       4.57505898e-07       8.21479110e-07 
      -4.60710585e-08       4.57505907e-07       8.21479098e-07 
      -1.31166980e-08       4.57505911e-07       8.21479121e-07 
       4.60548213e-08       4.57505902e-07       8.21479133e-07 
       1.31004603e-08       4.57505898e-07       8.21479110e-07 
      -4.60710585e-08       4.57505907e-07       8.21479098e-07 
      -1.31166980e-08       4.57505911e-07       8.21479121e-07 
       4.68488235e-08       4.80651193e-07       8.63037882e-07 
       1.33263507e-08       4.80651189e-07       8.63037859e-07 
      -4.68652472e-08       4.80651198e-07       8.63037847e-07 
      -1.33427744e-08       4.80651202e-07       8.63037870e-07 
       4.68488235e-08       4.80651193e-07       8.63037882e-07 
       1.33263507e-08       4.80651189e-07       8.63037859e-07 
      -4.68652472e-08       4.80651198e-07       8.63037847e-07 
      -1.33427744e-08       4.80651202e-07       8.63037870e-07 
       4.76180597e-08       5.04185898e-07       9.05295848e-07 
       1.35451925e-08       5.04185894e-07       9.05295824e-07 
      -4.76346704e-08       5.04185903e-07       9.05295811e-07 
      -1.35618032e-08       5.04185907e-07       9.05295835e-07 
       4.76180597e-08       5.04185898e-07       9.05295848e-07 
       1.35451925e-08       5.04185894e-07       9.05295824e-07 
      -4.76346704e-08       5.04185903e-07       9.05295811e-07 
      -1.35618032e-08       5.04185907e-07       9.05295835e-07 
       4.83625300e-08       5.28097679e-07       9.48230876e-07 
       1.37569871e-08       5.28097675e-07       9.48230853e-07 
      -4.83793277e-08       5.28097684e-07       9.48230839e-07 
      -1.37737848e-08       5.28097688e-07       9.48230863e-07 
       4.83625300e-08       5.28097679e-07       9.48230876e-07 
       1.37569871e-08       5.28097675e-07       9.48230853e-07 