# vtk DataFile Version 2.0
./output/onsasExample_nonLinearCantileverBlade_staitc3D_no_pitch numElements=10/onsasExample_nonLinearCantileverBlade_staitc3D_no_pitch numElements=10_0013.vtk
ASCII
DATASET UNSTRUCTURED_GRID

POINTS 800 float
      -1.753309e-25      -7.180703e-02      -7.180703e-02 
      -1.169027e-24       7.180703e-02      -7.180703e-02 
       1.753309e-25       7.180703e-02       7.180703e-02 
       1.169027e-24      -7.180703e-02       7.180703e-02 
       1.000000e-01      -7.180703e-02      -7.180703e-02 
       1.000000e-01       7.180703e-02      -7.180703e-02 
       1.000000e-01       7.180703e-02       7.180704e-02 
       1.000000e-01      -7.180703e-02       7.180704e-02 
       1.000000e-01      -7.180703e-02      -7.180703e-02 
       1.000000e-01       7.180703e-02      -7.180703e-02 
       1.000000e-01       7.180703e-02       7.180704e-02 
       1.000000e-01      -7.180703e-02       7.180704e-02 
       2.000000e-01      -7.180703e-02      -7.180702e-02 
       2.000000e-01       7.180703e-02      -7.180702e-02 
       2.000000e-01       7.180703e-02       7.180704e-02 
       2.000000e-01      -7.180703e-02       7.180704e-02 
       2.000000e-01      -7.180703e-02      -7.180702e-02 
       2.000000e-01       7.180703e-02      -7.180702e-02 
       2.000000e-01       7.180703e-02       7.180704e-02 
       2.000000e-01      -7.180703e-02       7.180704e-02 
       3.000000e-01      -7.180703e-02      -7.180701e-02 
       3.000000e-01       7.180703e-02      -7.180701e-02 
       3.000000e-01       7.180703e-02       7.180705e-02 
       3.000000e-01      -7.180703e-02       7.180705e-02 
       3.000000e-01      -7.180703e-02      -7.180701e-02 
       3.000000e-01       7.180703e-02      -7.180701e-02 
       3.000000e-01       7.180703e-02       7.180705e-02 
       3.000000e-01      -7.180703e-02       7.180705e-02 
       4.000000e-01      -7.180703e-02      -7.180700e-02 
       4.000000e-01       7.180703e-02      -7.180700e-02 
       4.000000e-01       7.180703e-02       7.180707e-02 
       4.000000e-01      -7.180703e-02       7.180707e-02 
       4.000000e-01      -7.180703e-02      -7.180700e-02 
       4.000000e-01       7.180703e-02      -7.180700e-02 
       4.000000e-01       7.180703e-02       7.180707e-02 
       4.000000e-01      -7.180703e-02       7.180707e-02 
       5.000000e-01      -7.180703e-02      -7.180698e-02 
       5.000000e-01       7.180703e-02      -7.180698e-02 
       5.000000e-01       7.180703e-02       7.180708e-02 
       5.000000e-01      -7.180703e-02       7.180708e-02 
       5.000000e-01      -7.180703e-02      -7.180698e-02 
       5.000000e-01       7.180703e-02      -7.180698e-02 
       5.000000e-01       7.180703e-02       7.180708e-02 
       5.000000e-01      -7.180703e-02       7.180708e-02 
       6.000000e-01      -7.180703e-02      -7.180696e-02 
       6.000000e-01       7.180703e-02      -7.180696e-02 
       6.000000e-01       7.180703e-02       7.180711e-02 
       6.000000e-01      -7.180703e-02       7.180711e-02 
       6.000000e-01      -7.180703e-02      -7.180696e-02 
       6.000000e-01       7.180703e-02      -7.180696e-02 
       6.000000e-01       7.180703e-02       7.180711e-02 
       6.000000e-01      -7.180703e-02       7.180711e-02 
       7.000000e-01      -7.180703e-02      -7.180693e-02 
       7.000000e-01       7.180704e-02      -7.180693e-02 
       7.000000e-01       7.180704e-02       7.180713e-02 
       7.000000e-01      -7.180703e-02       7.180713e-02 
       7.000000e-01      -7.180703e-02      -7.180693e-02 
       7.000000e-01       7.180704e-02      -7.180693e-02 
       7.000000e-01       7.180704e-02       7.180713e-02 
       7.000000e-01      -7.180703e-02       7.180713e-02 
       8.000000e-01      -7.180703e-02      -7.180691e-02 
       8.000000e-01       7.180704e-02      -7.180691e-02 
       8.000000e-01       7.180704e-02       7.180716e-02 
       8.000000e-01      -7.180703e-02       7.180716e-02 
       8.000000e-01      -7.180703e-02      -7.180691e-02 
       8.000000e-01       7.180704e-02      -7.180691e-02 
       8.000000e-01       7.180704e-02       7.180716e-02 
       8.000000e-01      -7.180703e-02       7.180716e-02 
       9.000000e-01      -7.180703e-02      -7.180687e-02 
       9.000000e-01       7.180704e-02      -7.180687e-02 
       9.000000e-01       7.180704e-02       7.180719e-02 
       9.000000e-01      -7.180703e-02       7.180719e-02 
       9.000000e-01      -7.180703e-02      -7.180687e-02 
       9.000000e-01       7.180704e-02      -7.180687e-02 
       9.000000e-01       7.180704e-02       7.180719e-02 
       9.000000e-01      -7.180703e-02       7.180719e-02 
       1.000000e+00      -7.180703e-02      -7.180684e-02 
       1.000000e+00       7.180704e-02      -7.180684e-02 
       1.000000e+00       7.180704e-02       7.180723e-02 
       1.000000e+00      -7.180703e-02       7.180723e-02 
       1.000000e+00      -7.180703e-02      -7.180684e-02 
       1.000000e+00       7.180704e-02      -7.180684e-02 
       1.000000e+00       7.180704e-02       7.180723e-02 
       1.000000e+00      -7.180703e-02       7.180723e-02 
       1.100000e+00      -7.180703e-02      -7.180680e-02 
       1.100000e+00       7.180704e-02      -7.180680e-02 
       1.100000e+00       7.180704e-02       7.180727e-02 
       1.100000e+00      -7.180703e-02       7.180727e-02 
       1.100000e+00      -7.180703e-02      -7.180680e-02 
       1.100000e+00       7.180704e-02      -7.180680e-02 
       1.100000e+00       7.180704e-02       7.180727e-02 
       1.100000e+00      -7.180703e-02       7.180727e-02 
       1.200000e+00      -7.180703e-02      -7.180675e-02 
       1.200000e+00       7.180704e-02      -7.180675e-02 
       1.200000e+00       7.180704e-02       7.180731e-02 
       1.200000e+00      -7.180703e-02       7.180731e-02 
       1.200000e+00      -7.180703e-02      -7.180675e-02 
       1.200000e+00       7.180704e-02      -7.180675e-02 
       1.200000e+00       7.180704e-02       7.180731e-02 
       1.200000e+00      -7.180703e-02       7.180731e-02 
       1.300000e+00      -7.180703e-02      -7.180671e-02 
       1.300000e+00       7.180704e-02      -7.180671e-02 
       1.300000e+00       7.180704e-02       7.180736e-02 
       1.300000e+00      -7.180703e-02       7.180736e-02 
       1.300000e+00      -7.180703e-02      -7.180671e-02 
       1.300000e+00       7.180704e-02      -7.180671e-02 
       1.300000e+00       7.180704e-02       7.180736e-02 
       1.300000e+00      -7.180703e-02       7.180736e-02 
       1.400000e+00      -7.180702e-02      -7.180666e-02 
       1.400000e+00       7.180704e-02      -7.180666e-02 
       1.400000e+00       7.180704e-02       7.180741e-02 
       1.400000e+00      -7.180702e-02       7.180741e-02 
       1.400000e+00      -7.180702e-02      -7.180666e-02 
       1.400000e+00       7.180704e-02      -7.180666e-02 
       1.400000e+00       7.180704e-02       7.180741e-02 
       1.400000e+00      -7.180702e-02       7.180741e-02 
       1.500000e+00      -7.180702e-02      -7.180661e-02 
       1.500000e+00       7.180704e-02      -7.180661e-02 
       1.500000e+00       7.180704e-02       7.180746e-02 
       1.500000e+00      -7.180702e-02       7.180746e-02 
       1.500000e+00      -7.180702e-02      -7.180661e-02 
       1.500000e+00       7.180704e-02      -7.180661e-02 
       1.500000e+00       7.180704e-02       7.180746e-02 
       1.500000e+00      -7.180702e-02       7.180746e-02 
       1.600000e+00      -7.180702e-02      -7.180655e-02 
       1.600000e+00       7.180704e-02      -7.180655e-02 
       1.600000e+00       7.180704e-02       7.180752e-02 
       1.600000e+00      -7.180702e-02       7.180752e-02 
       1.600000e+00      -7.180702e-02      -7.180655e-02 
       1.600000e+00       7.180704e-02      -7.180655e-02 
       1.600000e+00       7.180704e-02       7.180752e-02 
       1.600000e+00      -7.180702e-02       7.180752e-02 
       1.700000e+00      -7.180702e-02      -7.180649e-02 
       1.700000e+00       7.180704e-02      -7.180649e-02 
       1.700000e+00       7.180704e-02       7.180757e-02 
       1.700000e+00      -7.180702e-02       7.180757e-02 
       1.700000e+00      -7.180702e-02      -7.180649e-02 
       1.700000e+00       7.180704e-02      -7.180649e-02 
       1.700000e+00       7.180704e-02       7.180757e-02 
       1.700000e+00      -7.180702e-02       7.180757e-02 
       1.800000e+00      -7.180702e-02      -7.180643e-02 
       1.800000e+00       7.180705e-02      -7.180643e-02 
       1.800000e+00       7.180705e-02       7.180764e-02 
       1.800000e+00      -7.180702e-02       7.180764e-02 
       1.800000e+00      -7.180702e-02      -7.180643e-02 
       1.800000e+00       7.180705e-02      -7.180643e-02 
       1.800000e+00       7.180705e-02       7.180764e-02 
       1.800000e+00      -7.180702e-02       7.180764e-02 
       1.900000e+00      -7.180702e-02      -7.180637e-02 
       1.900000e+00       7.180705e-02      -7.180637e-02 
       1.900000e+00       7.180705e-02       7.180770e-02 
       1.900000e+00      -7.180702e-02       7.180770e-02 
       1.900000e+00      -7.180702e-02      -7.180637e-02 
       1.900000e+00       7.180705e-02      -7.180637e-02 
       1.900000e+00       7.180705e-02       7.180770e-02 
       1.900000e+00      -7.180702e-02       7.180770e-02 
       2.000000e+00      -7.180702e-02      -7.180630e-02 
       2.000000e+00       7.180705e-02      -7.180630e-02 
       2.000000e+00       7.180705e-02       7.180777e-02 
       2.000000e+00      -7.180702e-02       7.180777e-02 
       2.000000e+00      -7.180702e-02      -7.180630e-02 
       2.000000e+00       7.180705e-02      -7.180630e-02 
       2.000000e+00       7.180705e-02       7.180777e-02 
       2.000000e+00      -7.180702e-02       7.180777e-02 
       2.100000e+00      -7.180702e-02      -7.180623e-02 
[...]
POINT_DATA       800 
VECTORS Displacements float
      -1.75330919e-25      -1.38777878e-17      -1.38777878e-17 
      -1.16902678e-24       2.77555756e-17      -1.38777878e-17 
       1.75330919e-25       1.38777878e-17       1.38777878e-17 
       1.16902678e-24      -2.77555756e-17       1.38777878e-17 
       3.04534958e-09       4.52535232e-11       2.08229342e-09 
       2.91578336e-09       4.52535648e-11       2.08229321e-09 
      -3.04605635e-09       4.52537452e-11       2.08229312e-09 
      -2.91649013e-09       4.52537036e-11       2.08229332e-09 
       3.04534958e-09       4.52535232e-11       2.08229342e-09 
       2.91578336e-09       4.52535648e-11       2.08229321e-09 
      -3.04605635e-09       4.52537452e-11       2.08229312e-09 
      -2.91649013e-09       4.52537036e-11       2.08229332e-09 
       6.03217654e-09       1.79858642e-10       8.27599667e-09 
       5.77553361e-09       1.79858684e-10       8.27599628e-09 
      -6.03359168e-09       1.79859058e-10       8.27599581e-09 
      -5.77694875e-09       1.79859017e-10       8.27599619e-09 
       6.03217654e-09       1.79858642e-10       8.27599667e-09 
       5.77553361e-09       1.79858684e-10       8.27599628e-09 
      -6.03359168e-09       1.79859058e-10       8.27599581e-09 
      -5.77694875e-09       1.79859017e-10       8.27599619e-09 
       8.96048080e-09       4.02081868e-10       1.85013445e-08 
       8.57925075e-09       4.02081909e-10       1.85013439e-08 
      -8.96260594e-09       4.02082451e-10       1.85013428e-08 
      -8.58137589e-09       4.02082423e-10       1.85013434e-08 
       8.96048080e-09       4.02081868e-10       1.85013445e-08 
       8.57925075e-09       4.02081909e-10       1.85013439e-08 
      -8.96260594e-09       4.02082451e-10       1.85013428e-08 
      -8.58137589e-09       4.02082423e-10       1.85013434e-08 
       1.18302625e-08       7.10189685e-10       3.26785715e-08 
       1.13269349e-08       7.10189713e-10       3.26785707e-08 
      -1.18330991e-08       7.10190434e-10       3.26785689e-08 
      -1.13297715e-08       7.10190406e-10       3.26785697e-08 
       1.18302625e-08       7.10189685e-10       3.26785715e-08 
       1.13269349e-08       7.10189713e-10       3.26785707e-08 
      -1.18330991e-08       7.10190434e-10       3.26785689e-08 
      -1.13297715e-08       7.10190406e-10       3.26785697e-08 
       1.46415216e-08       1.10244856e-09       5.07279126e-08 
       1.40185860e-08       1.10244859e-09       5.07279115e-08 
      -1.46450712e-08       1.10244948e-09       5.07279087e-08 
      -1.40221356e-08       1.10244945e-09       5.07279097e-08 
       1.46415216e-08       1.10244856e-09       5.07279126e-08 
       1.40185860e-08       1.10244859e-09       5.07279115e-08 
      -1.46450712e-08       1.10244948e-09       5.07279087e-08 
      -1.40221356e-08       1.10244945e-09       5.07279097e-08 
       1.73942580e-08       1.57712501e-09       7.25696023e-08 
       1.66542039e-08       1.57712504e-09       7.25696011e-08 
      -1.73985222e-08       1.57712610e-09       7.25695971e-08 
      -1.66584680e-08       1.57712607e-09       7.25695983e-08 
       1.73942580e-08       1.57712501e-09       7.25696023e-08 
       1.66542039e-08       1.57712504e-09       7.25696011e-08 
      -1.73985222e-08       1.57712610e-09       7.25695971e-08 
      -1.66584680e-08       1.57712607e-09       7.25695983e-08 
       2.00884719e-08       2.13248554e-09       9.81238756e-08 
       1.92337890e-08       2.13248556e-09       9.81238741e-08 
      -2.00934520e-08       2.13248677e-09       9.81238687e-08 
      -1.92387691e-08       2.13248673e-09       9.81238702e-08 
       2.00884719e-08       2.13248554e-09       9.81238756e-08 
       1.92337890e-08       2.13248556e-09       9.81238741e-08 
      -2.00934520e-08       2.13248677e-09       9.81238687e-08 
      -1.92387691e-08       2.13248673e-09       9.81238702e-08 
       2.27241632e-08       2.76679661e-09       1.27310967e-07 
       2.17573409e-08       2.76679664e-09       1.27310965e-07 
      -2.27298608e-08       2.76679801e-09       1.27310958e-07 
      -2.17630385e-08       2.76679799e-09       1.27310960e-07 
       2.27241632e-08       2.76679661e-09       1.27310967e-07 
       2.17573409e-08       2.76679664e-09       1.27310965e-07 
      -2.27298608e-08       2.76679801e-09       1.27310958e-07 
      -2.17630385e-08       2.76679799e-09       1.27310960e-07 
       2.53013320e-08       3.47832473e-09       1.60051111e-07 
       2.42248600e-08       3.47832477e-09       1.60051109e-07 
      -2.53077483e-08       3.47832628e-09       1.60051101e-07 
      -2.42312763e-08       3.47832625e-09       1.60051103e-07 
       2.53013320e-08       3.47832473e-09       1.60051111e-07 
       2.42248600e-08       3.47832477e-09       1.60051109e-07 
      -2.53077483e-08       3.47832628e-09       1.60051101e-07 
      -2.42312763e-08       3.47832625e-09       1.60051103e-07 
       2.78199783e-08       4.26533639e-09       1.96264543e-07 
       2.66363460e-08       4.26533642e-09       1.96264541e-07 
      -2.78271147e-08       4.26533811e-09       1.96264531e-07 
      -2.66434824e-08       4.26533808e-09       1.96264533e-07 
       2.78199781e-08       4.26533639e-09       1.96264543e-07 
       2.66363460e-08       4.26533640e-09       1.96264541e-07 
      -2.78271147e-08       4.26533811e-09       1.96264531e-07 
      -2.66434825e-08       4.26533810e-09       1.96264533e-07 
       3.02833083e-08       5.12612856e-09       2.35872897e-07 
       2.89948743e-08       5.12612856e-09       2.35872895e-07 
      -3.02909138e-08       5.12613033e-09       2.35872882e-07 
      -2.90024800e-08       5.12613033e-09       2.35872885e-07 
       3.02833083e-08       5.12612856e-09       2.35872897e-07 
       2.89948743e-08       5.12612856e-09       2.35872895e-07 
      -3.02909138e-08       5.12613033e-09       2.35872882e-07 
      -2.90024800e-08       5.12613033e-09       2.35872885e-07 
       3.26942751e-08       6.05911973e-09       2.78803404e-07 
       3.13032671e-08       6.05911973e-09       2.78803402e-07 
      -3.27023526e-08       6.05912155e-09       2.78803387e-07 
      -3.13113446e-08       6.05912155e-09       2.78803390e-07 
       3.26942751e-08       6.05911973e-09       2.78803404e-07 
       3.13032671e-08       6.05911973e-09       2.78803402e-07 
      -3.27023526e-08       6.05912155e-09       2.78803387e-07 
      -3.13113446e-08       6.05912155e-09       2.78803390e-07 
       3.50528784e-08       7.06275888e-09       3.24984696e-07 
       3.35615236e-08       7.06275888e-09       3.24984693e-07 
      -3.50614320e-08       7.06276078e-09       3.24984677e-07 
      -3.35700772e-08       7.06276078e-09       3.24984679e-07 
       3.50528784e-08       7.06275888e-09       3.24984696e-07 
       3.35615236e-08       7.06275888e-09       3.24984693e-07 
      -3.50614320e-08       7.06276078e-09       3.24984677e-07 
      -3.35700772e-08       7.06276078e-09       3.24984679e-07 
       3.73591185e-08       8.13549497e-09       3.74345403e-07 
       3.57696446e-08       8.13549497e-09       3.74345400e-07 
      -3.73681512e-08       8.13549693e-09       3.74345381e-07 
      -3.57786771e-08       8.13549693e-09       3.74345384e-07 
       3.73591185e-08       8.13549497e-09       3.74345403e-07 
       3.57696446e-08       8.13549497e-09       3.74345400e-07 
      -3.73681512e-08       8.13549693e-09       3.74345381e-07 
      -3.57786771e-08       8.13549693e-09       3.74345384e-07 
       3.96129951e-08       9.27577697e-09       4.26814157e-07 
       3.79276295e-08       9.27577697e-09       4.26814154e-07 
      -3.96225106e-08       9.27577899e-09       4.26814133e-07 
      -3.79371448e-08       9.27577899e-09       4.26814136e-07 
       3.96129951e-08       9.27577697e-09       4.26814157e-07 
       3.79276295e-08       9.27577697e-09       4.26814154e-07 
      -3.96225106e-08       9.27577899e-09       4.26814133e-07 
      -3.79371448e-08       9.27577899e-09       4.26814136e-07 
       4.18145083e-08       1.04820538e-08       4.82319588e-07 
       4.00354785e-08       1.04820538e-08       4.82319585e-07 
      -4.18245096e-08       1.04820559e-08       4.82319562e-07 
      -4.00454798e-08       1.04820559e-08       4.82319565e-07 
       4.18145083e-08       1.04820538e-08       4.82319588e-07 
       4.00354785e-08       1.04820538e-08       4.82319585e-07 
      -4.18245096e-08       1.04820559e-08       4.82319562e-07 
      -4.00454798e-08       1.04820559e-08       4.82319565e-07 
       4.39636585e-08       1.17527746e-08       5.40790328e-07 
       4.20931920e-08       1.17527746e-08       5.40790325e-07 
      -4.39741488e-08       1.17527767e-08       5.40790299e-07 
      -4.21036823e-08       1.17527767e-08       5.40790303e-07 
       4.39636585e-08       1.17527746e-08       5.40790328e-07 
       4.20931920e-08       1.17527746e-08       5.40790325e-07 
      -4.39741488e-08       1.17527767e-08       5.40790299e-07 
      -4.21036823e-08       1.17527767e-08       5.40790303e-07 
       4.60604455e-08       1.30863881e-08       6.02155009e-07 
       4.41007697e-08       1.30863881e-08       6.02155005e-07 
      -4.60714278e-08       1.30863903e-08       6.02154977e-07 
      -4.41117523e-08       1.30863903e-08       6.02154980e-07 
       4.60604455e-08       1.30863881e-08       6.02155009e-07 
       4.41007697e-08       1.30863881e-08       6.02155005e-07 
      -4.60714278e-08       1.30863903e-08       6.02154977e-07 
      -4.41117523e-08       1.30863903e-08       6.02154980e-07 
       4.81048692e-08       1.44813435e-08       6.66342260e-07 
       4.60582119e-08       1.44813435e-08       6.66342256e-07 
      -4.81163467e-08       1.44813457e-08       6.66342225e-07 
      -4.60696894e-08       1.44813457e-08       6.66342229e-07 
       4.81048692e-08       1.44813435e-08       6.66342260e-07 
       4.60582119e-08       1.44813435e-08       6.66342256e-07 
      -4.81163467e-08       1.44813457e-08       6.66342225e-07 
      -4.60696894e-08       1.44813457e-08       6.66342229e-07 
       5.00969297e-08       1.59360896e-08       7.33280713e-07 
       4.79655182e-08       1.59360896e-08       7.33280709e-07 
      -5.01089055e-08       1.59360918e-08       7.33280676e-07 
      -4.79774940e-08       1.59360918e-08       7.33280679e-07 
       5.00969297e-08       1.59360896e-08       7.33280713e-07 
       4.79655178e-08       1.59360895e-08       7.33280709e-07 
      -5.01089057e-08       1.59360918e-08       7.33280676e-07 
      -4.79774942e-08       1.59360918e-08       7.33280679e-07 
       5.20397960e-08       1.74491058e-08       8.02900399e-07 
       4.98257267e-08       1.74491058e-08       8.02900395e-07 
      -5.20520955e-08       1.74491081e-08       8.02900359e-07 
      -4.98380262e-08       1.74491081e-08       8.02900362e-07 
       5.20397960e-08       1.74491058e-08       8.02900399e-07 
       4.98257267e-08       1.74491058e-08       8.02900395e-07 
      -5.20520955e-08       1.74491081e-08       8.02900359e-07 
      -4.98380262e-08       1.74491081e-08       8.02900362e-07 
       5.39364589e-08       1.90189932e-08       8.75136945e-07 
       5.16416971e-08       1.90189932e-08       8.75136941e-07 
      -5.39490861e-08       1.90189955e-08       8.75136902e-07 
      -5.16543244e-08       1.90189955e-08       8.75136906e-07 
       5.39364589e-08       1.90189932e-08       8.75136945e-07 
       5.16416971e-08       1.90189932e-08       8.75136941e-07 
      -5.39490861e-08       1.90189955e-08       8.75136902e-07 
      -5.16543244e-08       1.90189955e-08       8.75136906e-07 
       5.57869182e-08       2.06443832e-08       9.49927379e-07 
       5.34134301e-08       2.06443832e-08       9.49927375e-07 
      -5.57998767e-08       2.06443855e-08       9.49927333e-07 
      -5.34263882e-08       2.06443855e-08       9.49927337e-07 
       5.57869182e-08       2.06443832e-08       9.49927379e-07 
       5.34134301e-08       2.06443832e-08       9.49927375e-07 
      -5.57998767e-08       2.06443855e-08       9.49927333e-07 
      -5.34263882e-08       2.06443855e-08       9.49927337e-07 
       5.75911741e-08       2.23239073e-08       1.02720873e-06 
       5.51409243e-08       2.23239073e-08       1.02720872e-06 
      -5.76044683e-08       2.23239096e-08       1.02720868e-06 
      -5.51542185e-08       2.23239096e-08       1.02720868e-06 
       5.75911741e-08       2.23239073e-08       1.02720873e-06 
       5.51409243e-08       2.23239073e-08       1.02720872e-06 
      -5.76044683e-08       2.23239096e-08       1.02720868e-06 
      -5.51542185e-08       2.23239096e-08       1.02720868e-06 
       5.93492264e-08       2.40561969e-08       1.10691802e-06 
       5.68241809e-08       2.40561968e-08       1.10691802e-06 
      -5.93628604e-08       2.40561991e-08       1.10691797e-06 
      -5.68378149e-08       2.40561991e-08       1.10691797e-06 
       5.93492264e-08       2.40561969e-08       1.10691802e-06 
       5.68241809e-08       2.40561968e-08       1.10691802e-06 
      -5.93628604e-08       2.40561991e-08       1.10691797e-06 
      -5.68378149e-08       2.40561991e-08       1.10691797e-06 
       6.10610753e-08       2.58398833e-08       1.18899228e-06 
       5.84631992e-08       2.58398833e-08       1.18899228e-06 
      -6.10750530e-08       2.58398856e-08       1.18899223e-06 
      -5.84771769e-08       2.58398856e-08       1.18899223e-06 
       6.10610753e-08       2.58398833e-08       1.18899228e-06 
       5.84631992e-08       2.58398833e-08       1.18899228e-06 
      -6.10750530e-08       2.58398856e-08       1.18899223e-06 
      -5.84771769e-08       2.58398856e-08       1.18899223e-06 
       6.27267212e-08       2.76735982e-08       1.27336854e-06 
       6.00579799e-08       2.76735982e-08       1.27336854e-06 
      -6.27410461e-08       2.76736005e-08       1.27336849e-06 
      -6.00723049e-08       2.76736005e-08       1.27336849e-06 
       6.27267212e-08       2.76735982e-08       1.27336854e-06 
       6.00579799e-08       2.76735982e-08       1.27336854e-06 
      -6.27410461e-08       2.76736005e-08       1.27336849e-06 
      -6.00723049e-08       2.76736005e-08       1.27336849e-06 
       6.43461640e-08       2.95559729e-08       1.35998383e-06 
       6.16085236e-08       2.95559729e-08       1.35998382e-06 
      -6.43608389e-08       2.95559751e-08       1.35998377e-06 
      -6.16231981e-08       2.95559752e-08       1.35998377e-06 
       6.43461640e-08       2.95559729e-08       1.35998383e-06 
       6.16085236e-08       2.95559729e-08       1.35998382e-06 
      -6.43608389e-08       2.95559751e-08       1.35998377e-06 
      -6.16231981e-08       2.95559752e-08       1.35998377e-06 
       6.59194033e-08       3.14856388e-08       1.44877517e-06 
       6.31148285e-08       3.14856388e-08       1.44877516e-06 
      -6.59344326e-08       3.14856411e-08       1.44877510e-06 
      -6.31298573e-08       3.14856411e-08       1.44877511e-06 
       6.59194033e-08       3.14856388e-08       1.44877517e-06 
       6.31148285e-08       3.14856388e-08       1.44877516e-06 
      -6.59344326e-08       3.14856411e-08       1.44877510e-06 
      -6.31298573e-08       3.14856411e-08       1.44877511e-06 
       6.74464395e-08       3.34612275e-08       1.53967958e-06 
       6.45768958e-08       3.34612275e-08       1.53967958e-06 
      -6.74618263e-08       3.34612297e-08       1.53967952e-06 
      -6.45922826e-08       3.34612298e-08       1.53967952e-06 
       6.74464395e-08       3.34612275e-08       1.53967958e-06 
       6.45768958e-08       3.34612274e-08       1.53967958e-06 
      -6.74618263e-08       3.34612297e-08       1.53967952e-06 
      -6.45922826e-08       3.34612298e-08       1.53967952e-06 
       6.89304120e-08       3.54814007e-08       1.63263551e-06 
       6.59977339e-08       3.54814007e-08       1.63263550e-06 
      -6.89460409e-08       3.54814029e-08       1.63263544e-06 
      -6.60133628e-08       3.54814030e-08       1.63263544e-06 
       6.89304120e-08       3.54814007e-08       1.63263551e-06 
       6.59977339e-08       3.54814007e-08       1.63263550e-06 
      -6.89460409e-08       3.54814029e-08       1.63263544e-06 
      -6.60133628e-08       3.54814030e-08       1.63263544e-06 
       7.03743415e-08       3.75449420e-08       1.72758696e-06 
       6.73802325e-08       3.75449419e-08       1.72758696e-06 
      -7.03902159e-08       3.75449442e-08       1.72758689e-06 
      -6.73961069e-08       3.75449442e-08       1.72758690e-06 
       7.03743415e-08       3.75449420e-08       1.72758696e-06 
       6.73802325e-08       3.75449419e-08       1.72758696e-06 
      -7.03902159e-08       3.75449442e-08       1.72758689e-06 
      -6.73961069e-08       3.75449442e-08       1.72758690e-06 
       7.17782282e-08       3.96506653e-08       1.82447937e-06 
       6.87243915e-08       3.96506652e-08       1.82447937e-06 
      -7.17943518e-08       3.96506674e-08       1.82447930e-06 
      -6.87405151e-08       3.96506675e-08       1.82447930e-06 
       7.17782282e-08       3.96506653e-08       1.82447937e-06 
       6.87243915e-08       3.96506652e-08       1.82447937e-06 
      -7.17943518e-08       3.96506674e-08       1.82447930e-06 
      -6.87405151e-08       3.96506675e-08       1.82447930e-06 
       7.31420711e-08       4.17973844e-08       1.92325816e-06 
       7.00302105e-08       4.17973844e-08       1.92325815e-06 
      -7.31584482e-08       4.17973866e-08       1.92325808e-06 
      -7.00465876e-08       4.17973866e-08       1.92325809e-06 
       7.31420711e-08       4.17973844e-08       1.92325816e-06 
       7.00302105e-08       4.17973844e-08       1.92325815e-06 
      -7.31584482e-08       4.17973866e-08       1.92325808e-06 
      -7.00465876e-08       4.17973866e-08       1.92325809e-06 
       7.44658712e-08       4.39839134e-08       2.02386875e-06 
       7.12976895e-08       4.39839134e-08       2.02386874e-06 
      -7.44825055e-08       4.39839155e-08       2.02386867e-06 
      -7.13143238e-08       4.39839156e-08       2.02386868e-06 
       7.44658712e-08       4.39839134e-08       2.02386875e-06 
       7.12976895e-08       4.39839134e-08       2.02386874e-06 
      -7.44825055e-08       4.39839155e-08       2.02386867e-06 
      -7.13143238e-08       4.39839156e-08       2.02386868e-06 
       7.57496279e-08       4.62090661e-08       2.12625657e-06 
       7.25268290e-08       4.62090660e-08       2.12625656e-06 
      -7.57665233e-08       4.62090682e-08       2.12625648e-06 
      -7.25437239e-08       4.62090682e-08       2.12625649e-06 
       7.57496279e-08       4.62090661e-08       2.12625657e-06 
       7.25268290e-08       4.62090660e-08       2.12625656e-06 
      -7.57665233e-08       4.62090682e-08       2.12625648e-06 
      -7.25437239e-08       4.62090682e-08       2.12625649e-06 
       7.69933415e-08       4.84716565e-08       2.23036703e-06 
       7.37176284e-08       4.84716564e-08       2.23036703e-06 
      -7.70105011e-08       4.84716585e-08       2.23036695e-06 
      -7.37347881e-08       4.84716586e-08       2.23036695e-06 
       7.69933415e-08       4.84716565e-08       2.23036703e-06 
       7.37176284e-08       4.84716564e-08       2.23036703e-06 
      -7.70105011e-08       4.84716585e-08       2.23036695e-06 
      -7.37347881e-08       4.84716586e-08       2.23036695e-06 
       7.81970129e-08       5.07704984e-08       2.33614557e-06 
       7.48700892e-08       5.07704983e-08       2.33614557e-06 
      -7.82144394e-08       5.07705004e-08       2.33614549e-06 
      -7.48875157e-08       5.07705004e-08       2.33614549e-06 
       7.81970129e-08       5.07704984e-08       2.33614557e-06 
       7.48700892e-08       5.07704983e-08       2.33614557e-06 