# vtk DataFile Version 2.0
./output/onsasExample_nonLinearCantileverBlade_staitc3D_no_pitch numElements=10/onsasExample_nonLinearCantileverBlade_staitc3D_no_pitch numElements=10_0001.vtk
ASCII
DATASET UNSTRUCTURED_GRID

POINTS 800 float
       2.604745e-27      -7.180703e-02      -7.180703e-02 
      -6.264295e-28       7.180703e-02      -7.180703e-02 
      -2.604745e-27       7.180703e-02       7.180703e-02 
       6.264295e-28      -7.180703e-02       7.180703e-02 
       1.000000e-01      -7.180703e-02      -7.180703e-02 
       1.000000e-01       7.180703e-02      -7.180703e-02 
       1.000000e-01       7.180703e-02       7.180703e-02 
       1.000000e-01      -7.180703e-02       7.180703e-02 
       1.000000e-01      -7.180703e-02      -7.180703e-02 
       1.000000e-01       7.180703e-02      -7.180703e-02 
       1.000000e-01       7.180703e-02       7.180703e-02 
       1.000000e-01      -7.180703e-02       7.180703e-02 
       2.000000e-01      -7.180703e-02      -7.180703e-02 
       2.000000e-01       7.180703e-02      -7.180703e-02 
       2.000000e-01       7.180703e-02       7.180703e-02 
       2.000000e-01      -7.180703e-02       7.180703e-02 
       2.000000e-01      -7.180703e-02      -7.180703e-02 
       2.000000e-01       7.180703e-02      -7.180703e-02 
       2.000000e-01       7.180703e-02       7.180703e-02 
       2.000000e-01      -7.180703e-02       7.180703e-02 
       3.000000e-01      -7.180703e-02      -7.180703e-02 
       3.000000e-01       7.180703e-02      -7.180703e-02 
       3.000000e-01       7.180703e-02       7.180703e-02 
       3.000000e-01      -7.180703e-02       7.180703e-02 
       3.000000e-01      -7.180703e-02      -7.180703e-02 
       3.000000e-01       7.180703e-02      -7.180703e-02 
       3.000000e-01       7.180703e-02       7.180703e-02 
       3.000000e-01      -7.180703e-02       7.180703e-02 
       4.000000e-01      -7.180703e-02      -7.180703e-02 
       4.000000e-01       7.180703e-02      -7.180703e-02 
       4.000000e-01       7.180703e-02       7.180703e-02 
       4.000000e-01      -7.180703e-02       7.180703e-02 
       4.000000e-01      -7.180703e-02      -7.180703e-02 
       4.000000e-01       7.180703e-02      -7.180703e-02 
       4.000000e-01       7.180703e-02       7.180703e-02 
       4.000000e-01      -7.180703e-02       7.180703e-02 
       5.000000e-01      -7.180703e-02      -7.180703e-02 
       5.000000e-01       7.180703e-02      -7.180703e-02 
       5.000000e-01       7.180703e-02       7.180703e-02 
       5.000000e-01      -7.180703e-02       7.180703e-02 
       5.000000e-01      -7.180703e-02      -7.180703e-02 
       5.000000e-01       7.180703e-02      -7.180703e-02 
       5.000000e-01       7.180703e-02       7.180703e-02 
       5.000000e-01      -7.180703e-02       7.180703e-02 
       6.000000e-01      -7.180703e-02      -7.180703e-02 
       6.000000e-01       7.180703e-02      -7.180703e-02 
       6.000000e-01       7.180703e-02       7.180703e-02 
       6.000000e-01      -7.180703e-02       7.180703e-02 
       6.000000e-01      -7.180703e-02      -7.180703e-02 
       6.000000e-01       7.180703e-02      -7.180703e-02 
       6.000000e-01       7.180703e-02       7.180703e-02 
       6.000000e-01      -7.180703e-02       7.180703e-02 
       7.000000e-01      -7.180703e-02      -7.180703e-02 
       7.000000e-01       7.180703e-02      -7.180703e-02 
       7.000000e-01       7.180703e-02       7.180703e-02 
       7.000000e-01      -7.180703e-02       7.180703e-02 
       7.000000e-01      -7.180703e-02      -7.180703e-02 
       7.000000e-01       7.180703e-02      -7.180703e-02 
       7.000000e-01       7.180703e-02       7.180703e-02 
       7.000000e-01      -7.180703e-02       7.180703e-02 
       8.000000e-01      -7.180703e-02      -7.180703e-02 
       8.000000e-01       7.180703e-02      -7.180703e-02 
       8.000000e-01       7.180703e-02       7.180703e-02 
       8.000000e-01      -7.180703e-02       7.180703e-02 
       8.000000e-01      -7.180703e-02      -7.180703e-02 
       8.000000e-01       7.180703e-02      -7.180703e-02 
       8.000000e-01       7.180703e-02       7.180703e-02 
       8.000000e-01      -7.180703e-02       7.180703e-02 
       9.000000e-01      -7.180703e-02      -7.180703e-02 
       9.000000e-01       7.180703e-02      -7.180703e-02 
       9.000000e-01       7.180703e-02       7.180703e-02 
       9.000000e-01      -7.180703e-02       7.180703e-02 
       9.000000e-01      -7.180703e-02      -7.180703e-02 
       9.000000e-01       7.180703e-02      -7.180703e-02 
       9.000000e-01       7.180703e-02       7.180703e-02 
       9.000000e-01      -7.180703e-02       7.180703e-02 
       1.000000e+00      -7.180703e-02      -7.180703e-02 
       1.000000e+00       7.180703e-02      -7.180703e-02 
       1.000000e+00       7.180703e-02       7.180703e-02 
       1.000000e+00      -7.180703e-02       7.180703e-02 
       1.000000e+00      -7.180703e-02      -7.180703e-02 
       1.000000e+00       7.180703e-02      -7.180703e-02 
       1.000000e+00       7.180703e-02       7.180703e-02 
       1.000000e+00      -7.180703e-02       7.180703e-02 
       1.100000e+00      -7.180703e-02      -7.180703e-02 
       1.100000e+00       7.180703e-02      -7.180703e-02 
       1.100000e+00       7.180703e-02       7.180703e-02 
       1.100000e+00      -7.180703e-02       7.180703e-02 
       1.100000e+00      -7.180703e-02      -7.180703e-02 
       1.100000e+00       7.180703e-02      -7.180703e-02 
       1.100000e+00       7.180703e-02       7.180703e-02 
       1.100000e+00      -7.180703e-02       7.180703e-02 
       1.200000e+00      -7.180703e-02      -7.180703e-02 
       1.200000e+00       7.180703e-02      -7.180703e-02 
       1.200000e+00       7.180703e-02       7.180703e-02 
       1.200000e+00      -7.180703e-02       7.180703e-02 
       1.200000e+00      -7.180703e-02      -7.180703e-02 
       1.200000e+00       7.180703e-02      -7.180703e-02 
       1.200000e+00       7.180703e-02       7.180703e-02 
       1.200000e+00      -7.180703e-02       7.180703e-02 
       1.300000e+00      -7.180703e-02      -7.180703e-02 
       1.300000e+00       7.180703e-02      -7.180703e-02 
       1.300000e+00       7.180703e-02       7.180703e-02 
       1.300000e+00      -7.180703e-02       7.180703e-02 
       1.300000e+00      -7.180703e-02      -7.180703e-02 
       1.300000e+00       7.180703e-02      -7.180703e-02 
       1.300000e+00       7.180703e-02       7.180703e-02 
       1.300000e+00      -7.180703e-02       7.180703e-02 
       1.400000e+00      -7.180703e-02      -7.180703e-02 
       1.400000e+00       7.180703e-02      -7.180703e-02 
       1.400000e+00       7.180703e-02       7.180703e-02 
       1.400000e+00      -7.180703e-02       7.180703e-02 
       1.400000e+00      -7.180703e-02      -7.180703e-02 
       1.400000e+00       7.180703e-02      -7.180703e-02 
       1.400000e+00       7.180703e-02       7.180703e-02 
       1.400000e+00      -7.180703e-02       7.180703e-02 
       1.500000e+00      -7.180703e-02      -7.180703e-02 
       1.500000e+00       7.180703e-02      -7.180703e-02 
       1.500000e+00       7.180703e-02       7.180703e-02 
       1.500000e+00      -7.180703e-02       7.180703e-02 
       1.500000e+00      -7.180703e-02      -7.180703e-02 
       1.500000e+00       7.180703e-02      -7.180703e-02 
       1.500000e+00       7.180703e-02       7.180703e-02 
       1.500000e+00      -7.180703e-02       7.180703e-02 
       1.600000e+00      -7.180703e-02      -7.180703e-02 
       1.600000e+00       7.180703e-02      -7.180703e-02 
       1.600000e+00       7.180703e-02       7.180703e-02 
       1.600000e+00      -7.180703e-02       7.180703e-02 
       1.600000e+00      -7.180703e-02      -7.180703e-02 
       1.600000e+00       7.180703e-02      -7.180703e-02 
       1.600000e+00       7.180703e-02       7.180703e-02 
       1.600000e+00      -7.180703e-02       7.180703e-02 
       1.700000e+00      -7.180703e-02      -7.180703e-02 
       1.700000e+00       7.180703e-02      -7.180703e-02 
       1.700000e+00       7.180703e-02       7.180703e-02 
       1.700000e+00      -7.180703e-02       7.180703e-02 
       1.700000e+00      -7.180703e-02      -7.180703e-02 
       1.700000e+00       7.180703e-02      -7.180703e-02 
       1.700000e+00       7.180703e-02       7.180703e-02 
       1.700000e+00      -7.180703e-02       7.180703e-02 
       1.800000e+00      -7.180703e-02      -7.180703e-02 
       1.800000e+00       7.180703e-02      -7.180703e-02 
       1.800000e+00       7.180703e-02       7.180703e-02 
       1.800000e+00      -7.180703e-02       7.180703e-02 
       1.800000e+00      -7.180703e-02      -7.180703e-02 
       1.800000e+00       7.180703e-02      -7.180703e-02 
       1.800000e+00       7.180703e-02       7.180703e-02 
       1.800000e+00      -7.180703e-02       7.180703e-02 
       1.900000e+00      -7.180703e-02      -7.180703e-02 
       1.900000e+00       7.180703e-02      -7.180703e-02 
       1.900000e+00       7.180703e-02       7.180703e-02 
       1.900000e+00      -7.180703e-02       7.180703e-02 
       1.900000e+00      -7.180703e-02      -7.180703e-02 
       1.900000e+00       7.180703e-02      -7.180703e-02 
       1.900000e+00       7.180703e-02       7.180703e-02 
       1.900000e+00      -7.180703e-02       7.180703e-02 
       2.000000e+00      -7.180703e-02      -7.180703e-02 
       2.000000e+00       7.180703e-02      -7.180703e-02 
       2.000000e+00       7.180703e-02       7.180703e-02 
       2.000000e+00      -7.180703e-02       7.180703e-02 
       2.000000e+00      -7.180703e-02      -7.180703e-02 
       2.000000e+00       7.180703e-02      -7.180703e-02 
       2.000000e+00       7.180703e-02       7.180703e-02 
       2.000000e+00      -7.180703e-02       7.180703e-02 
       2.100000e+00      -7.180703e-02      -7.180703e-02 
[...]
POINT_DATA       800 
VECTORS Displacements float
       2.60474474e-27       0.00000000e+00       0.00000000e+00 
      -6.26429532e-28       0.00000000e+00       0.00000000e+00 
      -2.60474474e-27       0.00000000e+00       0.00000000e+00 
       6.26429532e-28       0.00000000e+00       0.00000000e+00 
       5.13895870e-12       1.09218190e-14       3.57884555e-12 
       5.10767817e-12       1.09218190e-14       3.57884555e-12 
      -5.13895870e-12       1.09218190e-14       3.57884555e-12 
      -5.10767817e-12       1.09218190e-14       3.57884555e-12 
       5.13895870e-12       1.09218190e-14       3.57884555e-12 
       5.10767817e-12       1.09218190e-14       3.57884555e-12 
      -5.13895870e-12       1.09218190e-14       3.57884555e-12 
      -5.10767817e-12       1.09218190e-14       3.57884555e-12 
       1.01791631e-11       4.34235981e-14       1.42239692e-11 
       1.01171849e-11       4.34235981e-14       1.42239692e-11 
      -1.01791631e-11       4.34235981e-14       1.42239692e-11 
      -1.01171849e-11       4.34235981e-14       1.42239692e-11 
       1.01791631e-11       4.34235981e-14       1.42239692e-11 
       1.01171849e-11       4.34235981e-14       1.42239692e-11 
      -1.01791631e-11       4.34235981e-14       1.42239692e-11 
      -1.01171849e-11       4.34235981e-14       1.42239692e-11 
       1.51206270e-11       9.70751257e-14       3.17983001e-11 
       1.50285895e-11       9.70751257e-14       3.17983001e-11 
      -1.51206270e-11       9.70751257e-14       3.17983001e-11 
      -1.50285895e-11       9.70751257e-14       3.17983001e-11 
       1.51206270e-11       9.70751257e-14       3.17983001e-11 
       1.50285895e-11       9.70751257e-14       3.17983001e-11 
      -1.51206270e-11       9.70751257e-14       3.17983001e-11 
      -1.50285895e-11       9.70751257e-14       3.17983001e-11 
       1.99633643e-11       1.71460068e-13       5.61647256e-11 
       1.98418504e-11       1.71460068e-13       5.61647256e-11 
      -1.99633643e-11       1.71460068e-13       5.61647256e-11 
      -1.98418504e-11       1.71460068e-13       5.61647256e-11 
       1.99633643e-11       1.71460068e-13       5.61647256e-11 
       1.98418504e-11       1.71460068e-13       5.61647256e-11 
      -1.99633643e-11       1.71460068e-13       5.61647256e-11 
      -1.98418504e-11       1.71460068e-13       5.61647256e-11 
       2.47073473e-11       2.66162092e-13       8.71861749e-11 
       2.45569121e-11       2.66162092e-13       8.71861749e-11 
      -2.47073473e-11       2.66162092e-13       8.71861749e-11 
      -2.45569676e-11       2.66162092e-13       8.71861749e-11 
       2.47073473e-11       2.66162092e-13       8.71861749e-11 
       2.45569121e-11       2.66162092e-13       8.71861749e-11 
      -2.47073473e-11       2.66162092e-13       8.71861749e-11 
      -2.45569676e-11       2.66162092e-13       8.71861749e-11 
       2.93525204e-11       3.80778742e-13       1.24725522e-10 
       2.91738855e-11       3.80778742e-13       1.24725522e-10 
      -2.93525204e-11       3.80778742e-13       1.24725522e-10 
      -2.91738855e-11       3.80778742e-13       1.24725522e-10 
       2.93525204e-11       3.80778742e-13       1.24725522e-10 
       2.91738855e-11       3.80778742e-13       1.24725522e-10 
      -2.93525204e-11       3.80778742e-13       1.24725522e-10 
      -2.91738855e-11       3.80778742e-13       1.24725522e-10 
       3.38991057e-11       5.14852050e-13       1.68645709e-10 
       3.36927153e-11       5.14852050e-13       1.68645709e-10 
      -3.38991057e-11       5.14852050e-13       1.68645709e-10 
      -3.36927153e-11       5.14852050e-13       1.68645709e-10 
       3.38991057e-11       5.14852050e-13       1.68645709e-10 
       3.36927153e-11       5.14852050e-13       1.68645709e-10 
      -3.38991057e-11       5.14852050e-13       1.68645709e-10 
      -3.36927153e-11       5.14852050e-13       1.68645709e-10 
       3.83467702e-11       6.68007316e-13       2.18809623e-10 
       3.81134013e-11       6.68007316e-13       2.18809623e-10 
      -3.83467702e-11       6.68007316e-13       2.18809623e-10 
      -3.81134013e-11       6.68007316e-13       2.18809623e-10 
       3.83467702e-11       6.68007316e-13       2.18809623e-10 
       3.81134013e-11       6.68007316e-13       2.18809623e-10 
      -3.83467702e-11       6.68007316e-13       2.18809623e-10 
      -3.81134013e-11       6.68007316e-13       2.18809623e-10 
       4.26958469e-11       8.39786574e-13       2.75080181e-10 
       4.24359436e-11       8.39786574e-13       2.75080181e-10 
      -4.26958469e-11       8.39786574e-13       2.75080181e-10 
      -4.24359436e-11       8.39786574e-13       2.75080181e-10 
       4.26958469e-11       8.39786574e-13       2.75080181e-10 
       4.24359436e-11       8.39786574e-13       2.75080181e-10 
      -4.26958469e-11       8.39786574e-13       2.75080181e-10 
      -4.24359436e-11       8.39786574e-13       2.75080181e-10 
       4.69460026e-11       1.02980124e-12       3.37320269e-10 
       4.66604533e-11       1.02980124e-12       3.37320269e-10 
      -4.69461137e-11       1.02980124e-12       3.37320269e-10 
      -4.66603423e-11       1.02980124e-12       3.37320269e-10 
       4.69462247e-11       1.02980124e-12       3.37320269e-10 
       4.66604533e-11       1.02980124e-12       3.37320269e-10 
      -4.69461137e-11       1.02980124e-12       3.37320269e-10 
      -4.66603423e-11       1.02980124e-12       3.37320269e-10 
       5.11026776e-11       1.23763499e-12       4.05395231e-10 
       5.07915932e-11       1.23763499e-12       4.05395231e-10 
      -5.11028997e-11       1.23763499e-12       4.05395231e-10 
      -5.07918152e-11       1.23763499e-12       4.05395231e-10 
       5.11026776e-11       1.23763499e-12       4.05395231e-10 
       5.07915932e-11       1.23763499e-12       4.05395231e-10 
      -5.11028997e-11       1.23763499e-12       4.05395231e-10 
      -5.07918152e-11       1.23763499e-12       4.05395231e-10 
       5.51712009e-11       1.46288537e-12       4.79179973e-10 
       5.48354695e-11       1.46288537e-12       4.79179973e-10 
      -5.51712009e-11       1.46288537e-12       4.79179973e-10 
      -5.48352475e-11       1.46288537e-12       4.79179973e-10 
       5.51712009e-11       1.46288537e-12       4.79179973e-10 
       5.48354695e-11       1.46288537e-12       4.79179973e-10 
      -5.51712009e-11       1.46288537e-12       4.79179973e-10 
      -5.48352475e-11       1.46288537e-12       4.79179973e-10 
       5.91513505e-11       1.70519154e-12       5.58551871e-10 
       5.87911941e-11       1.70519154e-12       5.58551871e-10 
      -5.91513505e-11       1.70519154e-12       5.58551871e-10 
      -5.87911941e-11       1.70519154e-12       5.58551871e-10 
       5.91513505e-11       1.70519154e-12       5.58551871e-10 
       5.87911941e-11       1.70519154e-12       5.58551871e-10 
      -5.91513505e-11       1.70519154e-12       5.58551871e-10 
      -5.87911941e-11       1.70519154e-12       5.58551871e-10 
       6.30431263e-11       1.96419270e-12       6.43388204e-10 
       6.26592112e-11       1.96419270e-12       6.43388204e-10 
      -6.30429042e-11       1.96419270e-12       6.43388204e-10 
      -6.26589891e-11       1.96419270e-12       6.43388204e-10 
       6.30431263e-11       1.96419270e-12       6.43388204e-10 
       6.26592112e-11       1.96419270e-12       6.43388204e-10 
      -6.30429042e-11       1.96419270e-12       6.43388204e-10 
      -6.26589891e-11       1.96419270e-12       6.43388204e-10 
       6.68460842e-11       2.23948637e-12       7.33566374e-10 
       6.64392985e-11       2.23948637e-12       7.33566374e-10 
      -6.68463063e-11       2.23948637e-12       7.33566374e-10 
      -6.64392985e-11       2.23948637e-12       7.33566374e-10 
       6.68460842e-11       2.23948637e-12       7.33566374e-10 
       6.64392985e-11       2.23948637e-12       7.33566374e-10 
      -6.68463063e-11       2.23948637e-12       7.33566374e-10 
      -6.64392985e-11       2.23948637e-12       7.33566374e-10 
       7.05608905e-11       2.53072563e-12       8.28963662e-10 
       7.01314562e-11       2.53072563e-12       8.28963662e-10 
      -7.05613346e-11       2.53072563e-12       8.28963662e-10 
      -7.01319003e-11       2.53072563e-12       8.28963662e-10 
       7.05608905e-11       2.53072563e-12       8.28963662e-10 
       7.01314562e-11       2.53072563e-12       8.28963662e-10 
      -7.05613346e-11       2.53072563e-12       8.28963662e-10 
      -7.01319003e-11       2.53072563e-12       8.28963662e-10 
       7.41877670e-11       2.83752188e-12       9.29457455e-10 
       7.37363504e-11       2.83752188e-12       9.29457455e-10 
      -7.41877670e-11       2.83752188e-12       9.29457455e-10 
      -7.37363504e-11       2.83752188e-12       9.29457455e-10 
       7.41877670e-11       2.83752188e-12       9.29457455e-10 
       7.37363504e-11       2.83752188e-12       9.29457455e-10 
      -7.41877670e-11       2.83752188e-12       9.29457455e-10 
      -7.37363504e-11       2.83752188e-12       9.29457455e-10 
       7.77260478e-11       3.15950044e-12       1.03492505e-09 
       7.72530928e-11       3.15950044e-12       1.03492505e-09 
      -7.77260478e-11       3.15950044e-12       1.03492505e-09 
      -7.72530928e-11       3.15950044e-12       1.03492505e-09 
       7.77260478e-11       3.15950044e-12       1.03492505e-09 
       7.72530928e-11       3.15950044e-12       1.03492505e-09 
      -7.77260478e-11       3.15950044e-12       1.03492505e-09 
      -7.72530928e-11       3.15950044e-12       1.03492505e-09 
       8.11759548e-11       3.49628659e-12       1.14524382e-09 
       8.06821276e-11       3.49628659e-12       1.14524382e-09 
      -8.11759548e-11       3.49628659e-12       1.14524382e-09 
      -8.06816836e-11       3.49628659e-12       1.14524382e-09 
       8.11759548e-11       3.49628659e-12       1.14524382e-09 
       8.06821276e-11       3.49628659e-12       1.14524382e-09 
      -8.11759548e-11       3.49628659e-12       1.14524382e-09 
      -8.06816836e-11       3.49628659e-12       1.14524382e-09 
       8.45377102e-11       3.84751953e-12       1.26029107e-09 
       8.40234549e-11       3.84751953e-12       1.26029107e-09 
      -8.45377102e-11       3.84751953e-12       1.26029107e-09 
      -8.40230108e-11       3.84751953e-12       1.26029107e-09 
       8.45377102e-11       3.84750565e-12       1.26029108e-09 
       8.40230108e-11       3.84750565e-12       1.26029108e-09 
      -8.45377102e-11       3.84750565e-12       1.26029108e-09 
      -8.40230108e-11       3.84750565e-12       1.26029108e-09 
       8.78159767e-11       4.21279678e-12       1.37994657e-09 
       8.72812933e-11       4.21279678e-12       1.37994657e-09 
      -8.78159767e-11       4.21279678e-12       1.37994657e-09 
      -8.72817374e-11       4.21279678e-12       1.37994657e-09 
       8.78159767e-11       4.21279678e-12       1.37994657e-09 
       8.72812933e-11       4.21279678e-12       1.37994657e-09 
      -8.78159767e-11       4.21279678e-12       1.37994657e-09 
      -8.72817374e-11       4.21279678e-12       1.37994657e-09 
       9.10165276e-11       4.59181304e-12       1.50409968e-09 
       9.04623043e-11       4.59181304e-12       1.50409968e-09 
      -9.10169717e-11       4.59181304e-12       1.50409968e-09 
      -9.04627484e-11       4.59181304e-12       1.50409968e-09 
       9.10165276e-11       4.59181304e-12       1.50409968e-09 
       9.04623043e-11       4.59181304e-12       1.50409968e-09 
      -9.10169717e-11       4.59181304e-12       1.50409968e-09 
      -9.04627484e-11       4.59181304e-12       1.50409968e-09 
       9.41393630e-11       4.98424912e-12       1.63264215e-09 
       9.35660438e-11       4.98424912e-12       1.63264215e-09 
      -9.41389189e-11       4.98424912e-12       1.63264215e-09 
      -9.35660438e-11       4.98424912e-12       1.63264215e-09 
       9.41393630e-11       4.98424912e-12       1.63264215e-09 
       9.35660438e-11       4.98424912e-12       1.63264215e-09 
      -9.41389189e-11       4.98424912e-12       1.63264215e-09 
      -9.35660438e-11       4.98424912e-12       1.63264215e-09 
       9.71835945e-11       5.38974421e-12       1.76546576e-09 
       9.65920677e-11       5.38974421e-12       1.76546576e-09 
      -9.71835945e-11       5.38974421e-12       1.76546576e-09 
      -9.65920677e-11       5.38974421e-12       1.76546576e-09 
       9.71835945e-11       5.38974421e-12       1.76546576e-09 
       9.65920677e-11       5.38974421e-12       1.76546576e-09 
      -9.71835945e-11       5.38974421e-12       1.76546576e-09 
      -9.65920677e-11       5.38974421e-12       1.76546576e-09 
       1.00150110e-10       5.80797910e-12       1.90246228e-09 
       9.95408200e-11       5.80797910e-12       1.90246228e-09 
      -1.00150110e-10       5.80797910e-12       1.90246228e-09 
      -9.95408200e-11       5.80797910e-12       1.90246228e-09 
       1.00150110e-10       5.80797910e-12       1.90246228e-09 
       9.95408200e-11       5.80797910e-12       1.90246228e-09 
      -1.00150110e-10       5.80797910e-12       1.90246228e-09 
      -9.95408200e-11       5.80797910e-12       1.90246228e-09 
       1.03038911e-10       6.23860685e-12       2.04352350e-09 
       1.02411413e-10       6.23860685e-12       2.04352350e-09 
      -1.03038911e-10       6.23860685e-12       2.04352350e-09 
      -1.02411857e-10       6.23860685e-12       2.04352350e-09 
       1.03038911e-10       6.23860685e-12       2.04352350e-09 
       1.02411413e-10       6.23860685e-12       2.04352350e-09 
      -1.03038911e-10       6.23860685e-12       2.04352350e-09 
      -1.02411857e-10       6.23860685e-12       2.04352350e-09 
       1.05849551e-10       6.68133604e-12       2.18854117e-09 
       1.05205178e-10       6.68133604e-12       2.18854117e-09 
      -1.05849995e-10       6.68133604e-12       2.18854117e-09 
      -1.05205622e-10       6.68133604e-12       2.18854117e-09 
       1.05849551e-10       6.68133604e-12       2.18854117e-09 
       1.05205178e-10       6.68133604e-12       2.18854117e-09 
      -1.05849995e-10       6.68133604e-12       2.18854117e-09 
      -1.05205622e-10       6.68133604e-12       2.18854117e-09 
       1.08582476e-10       7.13580584e-12       2.33740703e-09 
       1.07921672e-10       7.13580584e-12       2.33740703e-09 
      -1.08582032e-10       7.13580584e-12       2.33740703e-09 
      -1.07921228e-10       7.13580584e-12       2.33740703e-09 
       1.08582476e-10       7.13580584e-12       2.33740703e-09 
       1.07921672e-10       7.13580584e-12       2.33740703e-09 
      -1.08582032e-10       7.13580584e-12       2.33740703e-09 
      -1.07921228e-10       7.13580584e-12       2.33740703e-09 
       1.11237242e-10       7.60168317e-12       2.49001289e-09 
       1.10560006e-10       7.60168317e-12       2.49001289e-09 
      -1.11237242e-10       7.60168317e-12       2.49001289e-09 
      -1.10560006e-10       7.60168317e-12       2.49001289e-09 
       1.11237242e-10       7.60168317e-12       2.49001289e-09 
       1.10560006e-10       7.60168317e-12       2.49001289e-09 
      -1.11237242e-10       7.60168317e-12       2.49001289e-09 
      -1.10560006e-10       7.60168317e-12       2.49001289e-09 
       1.13813847e-10       8.07866274e-12       2.64625050e-09 
       1.13121068e-10       8.07866274e-12       2.64625050e-09 
      -1.13813847e-10       8.07866274e-12       2.64625050e-09 
      -1.13121068e-10       8.07866274e-12       2.64625050e-09 
       1.13813847e-10       8.07866274e-12       2.64625050e-09 
       1.13121068e-10       8.07866274e-12       2.64625050e-09 
      -1.13813847e-10       8.07866274e-12       2.64625050e-09 
      -1.13121068e-10       8.07866274e-12       2.64625050e-09 
       1.16318066e-10       8.56639759e-12       2.80601403e-09 
       1.15610188e-10       8.56639759e-12       2.80601403e-09 
      -1.16318066e-10       8.56639759e-12       2.80601403e-09 
      -1.15610188e-10       8.56639759e-12       2.80601403e-09 
       1.16318066e-10       8.56639759e-12       2.80601403e-09 
       1.15610188e-10       8.56639759e-12       2.80601403e-09 
      -1.16318066e-10       8.56639759e-12       2.80601403e-09 
      -1.15610188e-10       8.56639759e-12       2.80601403e-09 
       1.18754340e-10       9.06461017e-12       2.96920731e-09 
       1.18031807e-10       9.06461017e-12       2.96920731e-09 
      -1.18754784e-10       9.06461017e-12       2.96920731e-09 
      -1.18031807e-10       9.06461017e-12       2.96920731e-09 
       1.18754340e-10       9.06461017e-12       2.96920731e-09 
       1.18031807e-10       9.06461017e-12       2.96920731e-09 
      -1.18754784e-10       9.06461017e-12       2.96920731e-09 
      -1.18031807e-10       9.06461017e-12       2.96920731e-09 
       1.21124000e-10       9.57299517e-12       3.13573649e-09 
       1.20386368e-10       9.57299517e-12       3.13573649e-09 
      -1.21123556e-10       9.57299517e-12       3.13573649e-09 
      -1.20385923e-10       9.57299517e-12       3.13573649e-09 
       1.21124000e-10       9.57299517e-12       3.13573649e-09 
       1.20386368e-10       9.57299517e-12       3.13573649e-09 
      -1.21123556e-10       9.57299517e-12       3.13573649e-09 
      -1.20385923e-10       9.57299517e-12       3.13573649e-09 
       1.23425270e-10       1.00912889e-11       3.30550780e-09 
       1.22673871e-10       1.00912889e-11       3.30550780e-09 
      -1.23424826e-10       1.00912889e-11       3.30550780e-09 
      -1.22673427e-10       1.00912889e-11       3.30550780e-09 
       1.23425270e-10       1.00912889e-11       3.30550780e-09 
       1.22673871e-10       1.00912889e-11       3.30550780e-09 
      -1.23424826e-10       1.00912889e-11       3.30550780e-09 
      -1.22673427e-10       1.00912889e-11       3.30550780e-09 
       1.25658595e-10       1.06192000e-11       3.47842743e-09 
       1.24893873e-10       1.06192000e-11       3.47842743e-09 
      -1.25658595e-10       1.06192000e-11       3.47842743e-09 
      -1.24893873e-10       1.06192000e-11       3.47842743e-09 
       1.25658595e-10       1.06192000e-11       3.47842743e-09 
       1.24893873e-10       1.06192000e-11       3.47842743e-09 
      -1.25658595e-10       1.06192000e-11       3.47842743e-09 
      -1.24893873e-10       1.06192000e-11       3.47842743e-09 
       1.27824862e-10       1.11564230e-11       3.65440159e-09 
       1.27046818e-10       1.11564230e-11       3.65440159e-09 
      -1.27825306e-10       1.11564230e-11       3.65440159e-09 
      -1.27047262e-10       1.11564230e-11       3.65440159e-09 
       1.27824862e-10       1.11564230e-11       3.65440159e-09 
       1.27046818e-10       1.11564230e-11       3.65440159e-09 
      -1.27825306e-10       1.11564230e-11       3.65440159e-09 
      -1.27047262e-10       1.11564230e-11       3.65440159e-09 
       1.29923627e-10       1.17026805e-11       3.83333645e-09 
       1.29132705e-10       1.17026805e-11       3.83333645e-09 
      -1.29924072e-10       1.17026805e-11       3.83333645e-09 
      -1.29133149e-10       1.17026805e-11       3.83333645e-09 
       1.29923627e-10       1.17026805e-11       3.83333645e-09 
       1.29132705e-10       1.17026805e-11       3.83333645e-09 
      -1.29924072e-10       1.17026805e-11       3.83333645e-09 
      -1.29133149e-10       1.17026805e-11       3.83333645e-09 
       1.31954891e-10       1.22577087e-11       4.01513826e-09 
       1.31151978e-10       1.22577087e-11       4.01513826e-09 
      -1.31954891e-10       1.22577087e-11       4.01513826e-09 
      -1.31151534e-10       1.22577087e-11       4.01513826e-09 
       1.31954891e-10       1.22577087e-11       4.01513826e-09 
       1.31151978e-10       1.22577087e-11       4.01513826e-09 