# vtk DataFile Version 2.0
./output/onsasExample_nonLinearCantileverBlade_staitc3D_no_pitch numElements=10/onsasExample_nonLinearCantileverBlade_staitc3D_no_pitch numElements=10_0021.vtk
ASCII
DATASET UNSTRUCTURED_GRID

POINTS 800 float
      -4.131252e-24      -7.180703e-02      -7.180703e-02 
      -1.957248e-24       7.180703e-02      -7.180703e-02 
       4.131252e-24       7.180703e-02       7.180703e-02 
       1.957248e-24      -7.180703e-02       7.180703e-02 
       1.000000e-01      -7.180703e-02      -7.180703e-02 
       1.000000e-01       7.180703e-02      -7.180703e-02 
       1.000000e-01       7.180703e-02       7.180704e-02 
       1.000000e-01      -7.180703e-02       7.180704e-02 
       1.000000e-01      -7.180703e-02      -7.180703e-02 
       1.000000e-01       7.180703e-02      -7.180703e-02 
       1.000000e-01       7.180703e-02       7.180704e-02 
       1.000000e-01      -7.180703e-02       7.180704e-02 
       2.000000e-01      -7.180703e-02      -7.180702e-02 
       2.000000e-01       7.180703e-02      -7.180702e-02 
       2.000000e-01       7.180703e-02       7.180704e-02 
       2.000000e-01      -7.180703e-02       7.180704e-02 
       2.000000e-01      -7.180703e-02      -7.180702e-02 
       2.000000e-01       7.180703e-02      -7.180702e-02 
       2.000000e-01       7.180703e-02       7.180704e-02 
       2.000000e-01      -7.180703e-02       7.180704e-02 
       3.000000e-01      -7.180703e-02      -7.180701e-02 
       3.000000e-01       7.180704e-02      -7.180701e-02 
       3.000000e-01       7.180704e-02       7.180705e-02 
       3.000000e-01      -7.180703e-02       7.180705e-02 
       3.000000e-01      -7.180703e-02      -7.180701e-02 
       3.000000e-01       7.180704e-02      -7.180701e-02 
       3.000000e-01       7.180704e-02       7.180705e-02 
       3.000000e-01      -7.180703e-02       7.180705e-02 
       4.000000e-01      -7.180703e-02      -7.180700e-02 
       4.000000e-01       7.180704e-02      -7.180700e-02 
       4.000000e-01       7.180704e-02       7.180707e-02 
       4.000000e-01      -7.180703e-02       7.180707e-02 
       4.000000e-01      -7.180703e-02      -7.180700e-02 
       4.000000e-01       7.180704e-02      -7.180700e-02 
       4.000000e-01       7.180704e-02       7.180707e-02 
       4.000000e-01      -7.180703e-02       7.180707e-02 
       5.000000e-01      -7.180703e-02      -7.180698e-02 
       5.000000e-01       7.180704e-02      -7.180698e-02 
       5.000000e-01       7.180704e-02       7.180708e-02 
       5.000000e-01      -7.180703e-02       7.180708e-02 
       5.000000e-01      -7.180703e-02      -7.180698e-02 
       5.000000e-01       7.180704e-02      -7.180698e-02 
       5.000000e-01       7.180704e-02       7.180708e-02 
       5.000000e-01      -7.180703e-02       7.180708e-02 
       6.000000e-01      -7.180702e-02      -7.180696e-02 
       6.000000e-01       7.180704e-02      -7.180696e-02 
       6.000000e-01       7.180704e-02       7.180711e-02 
       6.000000e-01      -7.180702e-02       7.180711e-02 
       6.000000e-01      -7.180702e-02      -7.180696e-02 
       6.000000e-01       7.180704e-02      -7.180696e-02 
       6.000000e-01       7.180704e-02       7.180711e-02 
       6.000000e-01      -7.180702e-02       7.180711e-02 
       7.000000e-01      -7.180702e-02      -7.180693e-02 
       7.000000e-01       7.180705e-02      -7.180693e-02 
       7.000000e-01       7.180705e-02       7.180713e-02 
       7.000000e-01      -7.180702e-02       7.180713e-02 
       7.000000e-01      -7.180702e-02      -7.180693e-02 
       7.000000e-01       7.180705e-02      -7.180693e-02 
       7.000000e-01       7.180705e-02       7.180713e-02 
       7.000000e-01      -7.180702e-02       7.180713e-02 
       8.000000e-01      -7.180702e-02      -7.180690e-02 
       8.000000e-01       7.180705e-02      -7.180690e-02 
       8.000000e-01       7.180705e-02       7.180716e-02 
       8.000000e-01      -7.180702e-02       7.180716e-02 
       8.000000e-01      -7.180702e-02      -7.180690e-02 
       8.000000e-01       7.180705e-02      -7.180690e-02 
       8.000000e-01       7.180705e-02       7.180716e-02 
       8.000000e-01      -7.180702e-02       7.180716e-02 
       9.000000e-01      -7.180701e-02      -7.180687e-02 
       9.000000e-01       7.180705e-02      -7.180687e-02 
       9.000000e-01       7.180705e-02       7.180719e-02 
       9.000000e-01      -7.180701e-02       7.180719e-02 
       9.000000e-01      -7.180701e-02      -7.180687e-02 
       9.000000e-01       7.180705e-02      -7.180687e-02 
       9.000000e-01       7.180705e-02       7.180719e-02 
       9.000000e-01      -7.180701e-02       7.180719e-02 
       1.000000e+00      -7.180701e-02      -7.180684e-02 
       1.000000e+00       7.180706e-02      -7.180684e-02 
       1.000000e+00       7.180706e-02       7.180723e-02 
       1.000000e+00      -7.180701e-02       7.180723e-02 
       1.000000e+00      -7.180701e-02      -7.180684e-02 
       1.000000e+00       7.180706e-02      -7.180684e-02 
       1.000000e+00       7.180706e-02       7.180723e-02 
       1.000000e+00      -7.180701e-02       7.180723e-02 
       1.100000e+00      -7.180700e-02      -7.180680e-02 
       1.100000e+00       7.180706e-02      -7.180680e-02 
       1.100000e+00       7.180706e-02       7.180727e-02 
       1.100000e+00      -7.180700e-02       7.180727e-02 
       1.100000e+00      -7.180700e-02      -7.180680e-02 
       1.100000e+00       7.180706e-02      -7.180680e-02 
       1.100000e+00       7.180706e-02       7.180727e-02 
       1.100000e+00      -7.180700e-02       7.180727e-02 
       1.200000e+00      -7.180700e-02      -7.180675e-02 
       1.200000e+00       7.180707e-02      -7.180675e-02 
       1.200000e+00       7.180707e-02       7.180731e-02 
       1.200000e+00      -7.180700e-02       7.180731e-02 
       1.200000e+00      -7.180700e-02      -7.180675e-02 
       1.200000e+00       7.180707e-02      -7.180675e-02 
       1.200000e+00       7.180707e-02       7.180731e-02 
       1.200000e+00      -7.180700e-02       7.180731e-02 
       1.300000e+00      -7.180699e-02      -7.180671e-02 
       1.300000e+00       7.180707e-02      -7.180671e-02 
       1.300000e+00       7.180707e-02       7.180736e-02 
       1.300000e+00      -7.180699e-02       7.180736e-02 
       1.300000e+00      -7.180699e-02      -7.180671e-02 
       1.300000e+00       7.180707e-02      -7.180671e-02 
       1.300000e+00       7.180707e-02       7.180736e-02 
       1.300000e+00      -7.180699e-02       7.180736e-02 
       1.400000e+00      -7.180699e-02      -7.180666e-02 
       1.400000e+00       7.180708e-02      -7.180666e-02 
       1.400000e+00       7.180708e-02       7.180741e-02 
       1.400000e+00      -7.180699e-02       7.180741e-02 
       1.400000e+00      -7.180699e-02      -7.180666e-02 
       1.400000e+00       7.180708e-02      -7.180666e-02 
       1.400000e+00       7.180708e-02       7.180741e-02 
       1.400000e+00      -7.180699e-02       7.180741e-02 
       1.500000e+00      -7.180698e-02      -7.180660e-02 
       1.500000e+00       7.180709e-02      -7.180660e-02 
       1.500000e+00       7.180709e-02       7.180746e-02 
       1.500000e+00      -7.180698e-02       7.180746e-02 
       1.500000e+00      -7.180698e-02      -7.180660e-02 
       1.500000e+00       7.180709e-02      -7.180660e-02 
       1.500000e+00       7.180709e-02       7.180746e-02 
       1.500000e+00      -7.180698e-02       7.180746e-02 
       1.600000e+00      -7.180697e-02      -7.180655e-02 
       1.600000e+00       7.180709e-02      -7.180655e-02 
       1.600000e+00       7.180709e-02       7.180752e-02 
       1.600000e+00      -7.180697e-02       7.180752e-02 
       1.600000e+00      -7.180697e-02      -7.180655e-02 
       1.600000e+00       7.180709e-02      -7.180655e-02 
       1.600000e+00       7.180709e-02       7.180752e-02 
       1.600000e+00      -7.180697e-02       7.180752e-02 
       1.700000e+00      -7.180697e-02      -7.180649e-02 
       1.700000e+00       7.180710e-02      -7.180649e-02 
       1.700000e+00       7.180710e-02       7.180758e-02 
       1.700000e+00      -7.180697e-02       7.180758e-02 
       1.700000e+00      -7.180697e-02      -7.180649e-02 
       1.700000e+00       7.180710e-02      -7.180649e-02 
       1.700000e+00       7.180710e-02       7.180758e-02 
       1.700000e+00      -7.180697e-02       7.180758e-02 
       1.800000e+00      -7.180696e-02      -7.180643e-02 
       1.800000e+00       7.180711e-02      -7.180643e-02 
       1.800000e+00       7.180711e-02       7.180764e-02 
       1.800000e+00      -7.180696e-02       7.180764e-02 
       1.800000e+00      -7.180696e-02      -7.180643e-02 
       1.800000e+00       7.180711e-02      -7.180643e-02 
       1.800000e+00       7.180711e-02       7.180764e-02 
       1.800000e+00      -7.180696e-02       7.180764e-02 
       1.900000e+00      -7.180695e-02      -7.180636e-02 
       1.900000e+00       7.180712e-02      -7.180636e-02 
       1.900000e+00       7.180712e-02       7.180770e-02 
       1.900000e+00      -7.180695e-02       7.180770e-02 
       1.900000e+00      -7.180695e-02      -7.180636e-02 
       1.900000e+00       7.180712e-02      -7.180636e-02 
       1.900000e+00       7.180712e-02       7.180770e-02 
       1.900000e+00      -7.180695e-02       7.180770e-02 
       2.000000e+00      -7.180694e-02      -7.180629e-02 
       2.000000e+00       7.180712e-02      -7.180629e-02 
       2.000000e+00       7.180712e-02       7.180777e-02 
       2.000000e+00      -7.180694e-02       7.180777e-02 
       2.000000e+00      -7.180694e-02      -7.180629e-02 
       2.000000e+00       7.180712e-02      -7.180629e-02 
       2.000000e+00       7.180712e-02       7.180777e-02 
       2.000000e+00      -7.180694e-02       7.180777e-02 
       2.100000e+00      -7.180693e-02      -7.180622e-02 
[...]
POINT_DATA       800 
VECTORS Displacements float
      -4.13125185e-24       1.38777878e-17       0.00000000e+00 
      -1.95724751e-24       1.38777878e-17       0.00000000e+00 
       4.13125185e-24      -1.38777878e-17       0.00000000e+00 
       1.95724751e-24      -1.38777878e-17       0.00000000e+00 
       3.37561763e-09       2.59873539e-10       2.09844769e-09 
       2.63156892e-09       2.59873553e-10       2.09844657e-09 
      -3.37652091e-09       2.59874622e-10       2.09844643e-09 
      -2.63247220e-09       2.59874622e-10       2.09844755e-09 
       3.37561763e-09       2.59873539e-10       2.09844769e-09 
       2.63156892e-09       2.59873553e-10       2.09844657e-09 
      -3.37652091e-09       2.59874622e-10       2.09844643e-09 
      -2.63247220e-09       2.59874622e-10       2.09844755e-09 
       6.68636474e-09       1.03285869e-09       8.34020025e-09 
       5.21256391e-09       1.03285869e-09       8.34019798e-09 
      -6.68817296e-09       1.03286081e-09       8.34019749e-09 
      -5.21437213e-09       1.03286082e-09       8.34019977e-09 
       6.68636474e-09       1.03285869e-09       8.34020025e-09 
       5.21256391e-09       1.03285869e-09       8.34019798e-09 
      -6.68817296e-09       1.03286081e-09       8.34019749e-09 
      -5.21437213e-09       1.03286082e-09       8.34019977e-09 
       9.93224125e-09       2.30900056e-09       1.86448737e-08 
       7.74298486e-09       2.30900056e-09       1.86448702e-08 
      -9.93495614e-09       2.30900374e-09       1.86448691e-08 
      -7.74569975e-09       2.30900372e-09       1.86448726e-08 
       9.93224125e-09       2.30900056e-09       1.86448737e-08 
       7.74298486e-09       2.30900056e-09       1.86448702e-08 
      -9.93495614e-09       2.30900374e-09       1.86448691e-08 
      -7.74569975e-09       2.30900372e-09       1.86448726e-08 
       1.31132474e-08       4.07834436e-09       3.29320838e-08 
       1.02228321e-08       4.07834433e-09       3.29320791e-08 
      -1.31168704e-08       4.07834851e-09       3.29320772e-08 
      -1.02264551e-08       4.07834852e-09       3.29320819e-08 
       1.31132474e-08       4.07834436e-09       3.29320838e-08 
       1.02228321e-08       4.07834433e-09       3.29320791e-08 
      -1.31168704e-08       4.07834851e-09       3.29320772e-08 
      -1.02264551e-08       4.07834852e-09       3.29320819e-08 
       1.62293829e-08       6.33093516e-09       5.11214466e-08 
       1.26521053e-08       6.33093514e-09       5.11214407e-08 
      -1.62339158e-08       6.33094029e-09       5.11214378e-08 
      -1.26566380e-08       6.33094033e-09       5.11214437e-08 
       1.62293829e-08       6.33093516e-09       5.11214466e-08 
       1.26521053e-08       6.33093514e-09       5.11214407e-08 
      -1.62339158e-08       6.33094029e-09       5.11214378e-08 
      -1.26566380e-08       6.33094033e-09       5.11214437e-08 
       1.92806481e-08       9.05681817e-09       7.31325781e-08 
       1.50308044e-08       9.05681811e-09       7.31325709e-08 
      -1.92860924e-08       9.05682425e-09       7.31325668e-08 
      -1.50362487e-08       9.05682430e-09       7.31325740e-08 
       1.92806481e-08       9.05681817e-09       7.31325781e-08 
       1.50308044e-08       9.05681811e-09       7.31325709e-08 
      -1.92860924e-08       9.05682425e-09       7.31325668e-08 
      -1.50362487e-08       9.05682430e-09       7.31325740e-08 
       2.22670429e-08       1.22460385e-08       9.88850941e-08 
       1.73589298e-08       1.22460385e-08       9.88850856e-08 
      -2.22733999e-08       1.22460455e-08       9.88850802e-08 
      -1.73652869e-08       1.22460456e-08       9.88850886e-08 
       2.22670429e-08       1.22460385e-08       9.88850941e-08 
       1.73589298e-08       1.22460385e-08       9.88850856e-08 
      -2.22733999e-08       1.22460455e-08       9.88850802e-08 
      -1.73652869e-08       1.22460456e-08       9.88850886e-08 
       2.51885672e-08       1.58886413e-08       1.28298611e-07 
       1.96364816e-08       1.58886412e-08       1.28298601e-07 
      -2.51958383e-08       1.58886492e-08       1.28298594e-07 
      -1.96437526e-08       1.58886493e-08       1.28298604e-07 
       2.51885672e-08       1.58886413e-08       1.28298611e-07 
       1.96364816e-08       1.58886412e-08       1.28298601e-07 
      -2.51958383e-08       1.58886492e-08       1.28298594e-07 
      -1.96437526e-08       1.58886493e-08       1.28298604e-07 
       2.80452209e-08       1.99746718e-08       1.61292743e-07 
       2.18634593e-08       1.99746717e-08       1.61292732e-07 
      -2.80534078e-08       1.99746805e-08       1.61292724e-07 
      -2.18716462e-08       1.99746807e-08       1.61292735e-07 
       2.80452209e-08       1.99746718e-08       1.61292743e-07 
       2.18634593e-08       1.99746717e-08       1.61292732e-07 
      -2.80534078e-08       1.99746805e-08       1.61292724e-07 
      -2.18716462e-08       1.99746807e-08       1.61292735e-07 
       3.08370045e-08       2.44941750e-08       1.97787109e-07 
       2.40398632e-08       2.44941748e-08       1.97787096e-07 
      -3.08461084e-08       2.44941846e-08       1.97787086e-07 
      -2.40489672e-08       2.44941847e-08       1.97787098e-07 
       3.08370045e-08       2.44941750e-08       1.97787109e-07 
       2.40398630e-08       2.44941748e-08       1.97787096e-07 
      -3.08461084e-08       2.44941846e-08       1.97787086e-07 
      -2.40489672e-08       2.44941847e-08       1.97787098e-07 
       3.35674932e-08       2.94373710e-08       2.37702732e-07 
       2.61685165e-08       2.94373708e-08       2.37702719e-07 
      -3.35771928e-08       2.94373810e-08       2.37702706e-07 
      -2.61782160e-08       2.94373811e-08       2.37702720e-07 
       3.35674932e-08       2.94373710e-08       2.37702732e-07 
       2.61685165e-08       2.94373708e-08       2.37702719e-07 
      -3.35771928e-08       2.94373810e-08       2.37702706e-07 
      -2.61782160e-08       2.94373811e-08       2.37702720e-07 
       3.62399390e-08       3.47951779e-08       2.80966281e-07 
       2.82519186e-08       3.47951777e-08       2.80966267e-07 
      -3.62502373e-08       3.47951882e-08       2.80966253e-07 
      -2.82622168e-08       3.47951885e-08       2.80966267e-07 
       3.62399390e-08       3.47951779e-08       2.80966281e-07 
       2.82519186e-08       3.47951777e-08       2.80966267e-07 
      -3.62502373e-08       3.47951882e-08       2.80966253e-07 
      -2.82622168e-08       3.47951885e-08       2.80966267e-07 
       3.88543415e-08       4.05586888e-08       3.27505834e-07 
       3.02900689e-08       4.05586886e-08       3.27505819e-07 
      -3.88652426e-08       4.05586995e-08       3.27505802e-07 
      -3.03009700e-08       4.05586997e-08       3.27505817e-07 
       3.88543415e-08       4.05586888e-08       3.27505834e-07 
       3.02900689e-08       4.05586886e-08       3.27505819e-07 
      -3.88652426e-08       4.05586995e-08       3.27505802e-07 
      -3.03009700e-08       4.05586997e-08       3.27505817e-07 
       4.14107013e-08       4.67189967e-08       3.77249466e-07 
       3.22829681e-08       4.67189964e-08       3.77249450e-07 
      -4.14222081e-08       4.67190077e-08       3.77249432e-07 
      -3.22944749e-08       4.67190079e-08       3.77249448e-07 
       4.14107013e-08       4.67189967e-08       3.77249466e-07 
       3.22829681e-08       4.67189964e-08       3.77249450e-07 
      -4.14222081e-08       4.67190077e-08       3.77249432e-07 
      -3.22944749e-08       4.67190079e-08       3.77249448e-07 
       4.39090178e-08       5.32671946e-08       4.30125257e-07 
       3.42306157e-08       5.32671943e-08       4.30125240e-07 
      -4.39211343e-08       5.32672059e-08       4.30125219e-07 
      -3.42427324e-08       5.32672062e-08       4.30125236e-07 
       4.39090178e-08       5.32671946e-08       4.30125257e-07 
       3.42306157e-08       5.32671943e-08       4.30125240e-07 
      -4.39211343e-08       5.32672059e-08       4.30125219e-07 
      -3.42427324e-08       5.32672062e-08       4.30125236e-07 
       4.63492911e-08       6.01943755e-08       4.86061283e-07 
       3.61330121e-08       6.01943752e-08       4.86061265e-07 
      -4.63620209e-08       6.01943871e-08       4.86061242e-07 
      -3.61457420e-08       6.01943875e-08       4.86061260e-07 
       4.63492911e-08       6.01943755e-08       4.86061283e-07 
       3.61330121e-08       6.01943752e-08       4.86061265e-07 
      -4.63620209e-08       6.01943871e-08       4.86061242e-07 
      -3.61457420e-08       6.01943875e-08       4.86061260e-07 
       4.87315217e-08       6.74916325e-08       5.44985622e-07 
       3.79901575e-08       6.74916322e-08       5.44985603e-07 
      -4.87448675e-08       6.74916444e-08       5.44985577e-07 
      -3.80035030e-08       6.74916448e-08       5.44985596e-07 
       4.87315217e-08       6.74916325e-08       5.44985622e-07 
       3.79901575e-08       6.74916322e-08       5.44985603e-07 
      -4.87448675e-08       6.74916444e-08       5.44985577e-07 
      -3.80035030e-08       6.74916448e-08       5.44985596e-07 
       5.10557097e-08       7.51500586e-08       6.06826351e-07 
       3.98020512e-08       7.51500582e-08       6.06826331e-07 
      -5.10696745e-08       7.51500708e-08       6.06826303e-07 
      -3.98160165e-08       7.51500712e-08       6.06826322e-07 
       5.10557097e-08       7.51500586e-08       6.06826351e-07 
       3.98020512e-08       7.51500582e-08       6.06826331e-07 
      -5.10696745e-08       7.51500708e-08       6.06826303e-07 
      -3.98160165e-08       7.51500712e-08       6.06826322e-07 
       5.33218545e-08       8.31607468e-08       6.71511548e-07 
       4.15686943e-08       8.31607464e-08       6.71511527e-07 
      -5.33364419e-08       8.31607593e-08       6.71511496e-07 
      -4.15832813e-08       8.31607597e-08       6.71511516e-07 
       5.33218545e-08       8.31607468e-08       6.71511548e-07 
       4.15686943e-08       8.31607464e-08       6.71511527e-07 
      -5.33364419e-08       8.31607593e-08       6.71511496e-07 
      -4.15832813e-08       8.31607597e-08       6.71511516e-07 
       5.55299562e-08       9.15147901e-08       7.38969289e-07 
       4.32900853e-08       9.15147896e-08       7.38969268e-07 
      -5.55451694e-08       9.15148028e-08       7.38969234e-07 
      -4.33052987e-08       9.15148033e-08       7.38969255e-07 
       5.55299562e-08       9.15147902e-08       7.38969289e-07 
       4.32900857e-08       9.15147896e-08       7.38969268e-07 
      -5.55451696e-08       9.15148028e-08       7.38969234e-07 
      -4.33052987e-08       9.15148034e-08       7.38969255e-07 
       5.76835433e-08       1.00203456e-07       8.09129063e-07 
       4.49690014e-08       1.00203456e-07       8.09129041e-07 
      -5.76991579e-08       1.00203469e-07       8.09129004e-07 
      -4.49846160e-08       1.00203470e-07       8.09129027e-07 
       5.76835433e-08       1.00203456e-07       8.09129063e-07 
       4.49690014e-08       1.00203456e-07       8.09129041e-07 
      -5.76991579e-08       1.00203469e-07       8.09129004e-07 
      -4.49846160e-08       1.00203470e-07       8.09129027e-07 
       5.97859153e-08       1.09218712e-07       8.81925999e-07 
       4.66079886e-08       1.09218711e-07       8.81925976e-07 
      -5.98019354e-08       1.09218724e-07       8.81925936e-07 
      -4.66240091e-08       1.09218725e-07       8.81925959e-07 
       5.97859153e-08       1.09218712e-07       8.81925999e-07 
       4.66079886e-08       1.09218711e-07       8.81925976e-07 
      -5.98019354e-08       1.09218724e-07       8.81925936e-07 
      -4.66240091e-08       1.09218725e-07       8.81925959e-07 
       6.18370724e-08       1.18552697e-07       9.57296635e-07 
       4.82070481e-08       1.18552696e-07       9.57296611e-07 
      -6.18535019e-08       1.18552710e-07       9.57296569e-07 
      -4.82234777e-08       1.18552710e-07       9.57296592e-07 
       6.18370724e-08       1.18552697e-07       9.57296635e-07 
       4.82070481e-08       1.18552696e-07       9.57296611e-07 
      -6.18535019e-08       1.18552710e-07       9.57296569e-07 
      -4.82234777e-08       1.18552710e-07       9.57296592e-07 
       6.38370143e-08       1.28197553e-07       1.03517751e-06 
       4.97661792e-08       1.28197553e-07       1.03517748e-06 
      -6.38538578e-08       1.28197566e-07       1.03517744e-06 
      -4.97830226e-08       1.28197567e-07       1.03517746e-06 
       6.38370143e-08       1.28197553e-07       1.03517751e-06 
       4.97661792e-08       1.28197553e-07       1.03517748e-06 
      -6.38538578e-08       1.28197566e-07       1.03517744e-06 
      -4.97830226e-08       1.28197567e-07       1.03517746e-06 
       6.57857413e-08       1.38145421e-07       1.11550516e-06 
       5.12853822e-08       1.38145421e-07       1.11550514e-06 
      -6.58030030e-08       1.38145434e-07       1.11550509e-06 
      -5.13026439e-08       1.38145435e-07       1.11550511e-06 
       6.57857413e-08       1.38145421e-07       1.11550516e-06 
       5.12853822e-08       1.38145421e-07       1.11550514e-06 
      -6.58030030e-08       1.38145434e-07       1.11550509e-06 
      -5.13026439e-08       1.38145435e-07       1.11550511e-06 
       6.76832532e-08       1.48388442e-07       1.19821613e-06 
       5.27646566e-08       1.48388441e-07       1.19821611e-06 
      -6.77009369e-08       1.48388454e-07       1.19821606e-06 
      -5.27823407e-08       1.48388455e-07       1.19821608e-06 
       6.76832532e-08       1.48388442e-07       1.19821613e-06 
       5.27646566e-08       1.48388441e-07       1.19821611e-06 
      -6.77009369e-08       1.48388454e-07       1.19821606e-06 
      -5.27823407e-08       1.48388455e-07       1.19821608e-06 
       6.95295501e-08       1.58918756e-07       1.28324696e-06 
       5.42040031e-08       1.58918755e-07       1.28324693e-06 
      -6.95476601e-08       1.58918769e-07       1.28324688e-06 
      -5.42221130e-08       1.58918769e-07       1.28324690e-06 
       6.95295501e-08       1.58918756e-07       1.28324696e-06 
       5.42040031e-08       1.58918755e-07       1.28324693e-06 
      -6.95476601e-08       1.58918769e-07       1.28324688e-06 
      -5.42221130e-08       1.58918769e-07       1.28324690e-06 
       7.13246333e-08       1.69728505e-07       1.37053418e-06 
       5.56034223e-08       1.69728504e-07       1.37053415e-06 
      -7.13431718e-08       1.69728517e-07       1.37053409e-06 
      -5.56219608e-08       1.69728518e-07       1.37053412e-06 
       7.13246333e-08       1.69728505e-07       1.37053418e-06 
       5.56034223e-08       1.69728504e-07       1.37053415e-06 
      -7.13431718e-08       1.69728517e-07       1.37053409e-06 
      -5.56219608e-08       1.69728518e-07       1.37053412e-06 
       7.30685010e-08       1.80809829e-07       1.46001433e-06 
       5.69629131e-08       1.80809828e-07       1.46001430e-06 
      -7.30874725e-08       1.80809841e-07       1.46001424e-06 
      -5.69818845e-08       1.80809842e-07       1.46001427e-06 
       7.30685010e-08       1.80809829e-07       1.46001433e-06 
       5.69629131e-08       1.80809828e-07       1.46001430e-06 
      -7.30874725e-08       1.80809841e-07       1.46001424e-06 
      -5.69818845e-08       1.80809842e-07       1.46001427e-06 
       7.47611537e-08       1.92154870e-07       1.55162396e-06 
       5.82824757e-08       1.92154869e-07       1.55162393e-06 
      -7.47805626e-08       1.92154882e-07       1.55162387e-06 
      -5.83018842e-08       1.92154883e-07       1.55162390e-06 
       7.47611542e-08       1.92154870e-07       1.55162396e-06 
       5.82824757e-08       1.92154869e-07       1.55162393e-06 
      -7.47805626e-08       1.92154882e-07       1.55162387e-06 
      -5.83018842e-08       1.92154883e-07       1.55162390e-06 
       7.64060828e-08       2.03755942e-07       1.64530100e-06 
       5.95648486e-08       2.03755941e-07       1.64530098e-06 
      -7.64257790e-08       2.03755954e-07       1.64530091e-06 
      -5.95845444e-08       2.03755955e-07       1.64530094e-06 
       7.64060828e-08       2.03755942e-07       1.64530100e-06 
       5.95648486e-08       2.03755941e-07       1.64530098e-06 
      -7.64257790e-08       2.03755954e-07       1.64530091e-06 
      -5.95845444e-08       2.03755955e-07       1.64530094e-06 
       7.80066252e-08       2.15606060e-07       1.74098906e-06 
       6.08126167e-08       2.15606059e-07       1.74098903e-06 
      -7.80266132e-08       2.15606072e-07       1.74098897e-06 
      -6.08326043e-08       2.15606073e-07       1.74098900e-06 
       7.80066252e-08       2.15606060e-07       1.74098906e-06 
       6.08126167e-08       2.15606059e-07       1.74098903e-06 
      -7.80266132e-08       2.15606072e-07       1.74098897e-06 
      -6.08326043e-08       2.15606073e-07       1.74098900e-06 
       7.95627813e-08       2.27698413e-07       1.83863314e-06 
       6.20257805e-08       2.27698412e-07       1.83863311e-06 
      -7.95830641e-08       2.27698425e-07       1.83863304e-06 
      -6.20460634e-08       2.27698426e-07       1.83863307e-06 
       7.95627813e-08       2.27698413e-07       1.83863314e-06 
       6.20257805e-08       2.27698412e-07       1.83863311e-06 
      -7.95830641e-08       2.27698425e-07       1.83863304e-06 
      -6.20460634e-08       2.27698426e-07       1.83863307e-06 
       8.10745506e-08       2.40026190e-07       1.93817822e-06 
       6.32043391e-08       2.40026189e-07       1.93817819e-06 
      -8.10951333e-08       2.40026202e-07       1.93817812e-06 
      -6.32249217e-08       2.40026203e-07       1.93817815e-06 
       8.10745506e-08       2.40026190e-07       1.93817822e-06 
       6.32043391e-08       2.40026189e-07       1.93817819e-06 
      -8.10951333e-08       2.40026202e-07       1.93817812e-06 
      -6.32249217e-08       2.40026203e-07       1.93817815e-06 
       8.25419333e-08       2.52582579e-07       2.03956932e-06 
       6.43482934e-08       2.52582578e-07       2.03956929e-06 
      -8.25628197e-08       2.52582590e-07       2.03956921e-06 
      -6.43691798e-08       2.52582592e-07       2.03956924e-06 
       8.25419333e-08       2.52582579e-07       2.03956932e-06 
       6.43482934e-08       2.52582578e-07       2.03956929e-06 
      -8.25628197e-08       2.52582590e-07       2.03956921e-06 
      -6.43691798e-08       2.52582592e-07       2.03956924e-06 
       8.39649297e-08       2.65360769e-07       2.14275143e-06 
       6.54576433e-08       2.65360768e-07       2.14275140e-06 
      -8.39861234e-08       2.65360780e-07       2.14275132e-06 
      -6.54788370e-08       2.65360782e-07       2.14275135e-06 
       8.39649297e-08       2.65360769e-07       2.14275143e-06 
       6.54576433e-08       2.65360768e-07       2.14275140e-06 
      -8.39861234e-08       2.65360780e-07       2.14275132e-06 
      -6.54788370e-08       2.65360782e-07       2.14275135e-06 
       8.53435393e-08       2.78353949e-07       2.24766955e-06 
       6.65323880e-08       2.78353948e-07       2.24766952e-06 
      -8.53650444e-08       2.78353960e-07       2.24766944e-06 
      -6.65538931e-08       2.78353962e-07       2.24766947e-06 
       8.53435393e-08       2.78353949e-07       2.24766955e-06 
       6.65323880e-08       2.78353948e-07       2.24766952e-06 
      -8.53650444e-08       2.78353960e-07       2.24766944e-06 
      -6.65538931e-08       2.78353962e-07       2.24766947e-06 
       8.66777641e-08       2.91555308e-07       2.35426869e-06 
       6.75725298e-08       2.91555307e-07       2.35426866e-06 
      -8.66995817e-08       2.91555319e-07       2.35426857e-06 
      -6.75943475e-08       2.91555320e-07       2.35426861e-06 
       8.66777641e-08       2.91555308e-07       2.35426869e-06 
       6.75725298e-08       2.91555307e-07       2.35426866e-06 