# vtk DataFile Version 2.0
./output/onsasExample_nonLinearCantileverBlade_staitc3D_no_pitch numElements=10/onsasExample_nonLinearCantileverBlade_staitc3D_no_pitch numElements=10_0024.vtk
ASCII
DATASET UNSTRUCTURED_GRID

POINTS 800 float
       1.022648e-24      -7.180703e-02      -7.180703e-02 
       4.283202e-25       7.180703e-02      -7.180703e-02 
      -1.022648e-24       7.180703e-02       7.180703e-02 
      -4.283202e-25      -7.180703e-02       7.180703e-02 
       1.000000e-01      -7.180703e-02      -7.180703e-02 
       1.000000e-01       7.180703e-02      -7.180703e-02 
       1.000000e-01       7.180703e-02       7.180703e-02 
       1.000000e-01      -7.180703e-02       7.180703e-02 
       1.000000e-01      -7.180703e-02      -7.180703e-02 
       1.000000e-01       7.180703e-02      -7.180703e-02 
       1.000000e-01       7.180703e-02       7.180703e-02 
       1.000000e-01      -7.180703e-02       7.180703e-02 
       2.000000e-01      -7.180703e-02      -7.180703e-02 
       2.000000e-01       7.180703e-02      -7.180703e-02 
       2.000000e-01       7.180703e-02       7.180704e-02 
       2.000000e-01      -7.180703e-02       7.180704e-02 
       2.000000e-01      -7.180703e-02      -7.180703e-02 
       2.000000e-01       7.180703e-02      -7.180703e-02 
       2.000000e-01       7.180703e-02       7.180704e-02 
       2.000000e-01      -7.180703e-02       7.180704e-02 
       3.000000e-01      -7.180703e-02      -7.180702e-02 
       3.000000e-01       7.180704e-02      -7.180702e-02 
       3.000000e-01       7.180704e-02       7.180704e-02 
       3.000000e-01      -7.180703e-02       7.180704e-02 
       3.000000e-01      -7.180703e-02      -7.180702e-02 
       3.000000e-01       7.180704e-02      -7.180702e-02 
       3.000000e-01       7.180704e-02       7.180704e-02 
       3.000000e-01      -7.180703e-02       7.180704e-02 
       4.000000e-01      -7.180703e-02      -7.180701e-02 
       4.000000e-01       7.180704e-02      -7.180701e-02 
       4.000000e-01       7.180704e-02       7.180705e-02 
       4.000000e-01      -7.180703e-02       7.180705e-02 
       4.000000e-01      -7.180703e-02      -7.180701e-02 
       4.000000e-01       7.180704e-02      -7.180701e-02 
       4.000000e-01       7.180704e-02       7.180705e-02 
       4.000000e-01      -7.180703e-02       7.180705e-02 
       5.000000e-01      -7.180702e-02      -7.180700e-02 
       5.000000e-01       7.180704e-02      -7.180700e-02 
       5.000000e-01       7.180704e-02       7.180706e-02 
       5.000000e-01      -7.180702e-02       7.180706e-02 
       5.000000e-01      -7.180702e-02      -7.180700e-02 
       5.000000e-01       7.180704e-02      -7.180700e-02 
       5.000000e-01       7.180704e-02       7.180706e-02 
       5.000000e-01      -7.180702e-02       7.180706e-02 
       6.000000e-01      -7.180702e-02      -7.180699e-02 
       6.000000e-01       7.180705e-02      -7.180699e-02 
       6.000000e-01       7.180705e-02       7.180708e-02 
       6.000000e-01      -7.180702e-02       7.180708e-02 
       6.000000e-01      -7.180702e-02      -7.180699e-02 
       6.000000e-01       7.180705e-02      -7.180699e-02 
       6.000000e-01       7.180705e-02       7.180708e-02 
       6.000000e-01      -7.180702e-02       7.180708e-02 
       7.000000e-01      -7.180701e-02      -7.180698e-02 
       7.000000e-01       7.180705e-02      -7.180698e-02 
       7.000000e-01       7.180705e-02       7.180709e-02 
       7.000000e-01      -7.180701e-02       7.180709e-02 
       7.000000e-01      -7.180701e-02      -7.180698e-02 
       7.000000e-01       7.180705e-02      -7.180698e-02 
       7.000000e-01       7.180705e-02       7.180709e-02 
       7.000000e-01      -7.180701e-02       7.180709e-02 
       8.000000e-01      -7.180701e-02      -7.180696e-02 
       8.000000e-01       7.180706e-02      -7.180696e-02 
       8.000000e-01       7.180706e-02       7.180711e-02 
       8.000000e-01      -7.180701e-02       7.180711e-02 
       8.000000e-01      -7.180701e-02      -7.180696e-02 
       8.000000e-01       7.180706e-02      -7.180696e-02 
       8.000000e-01       7.180706e-02       7.180711e-02 
       8.000000e-01      -7.180701e-02       7.180711e-02 
       9.000000e-01      -7.180700e-02      -7.180694e-02 
       9.000000e-01       7.180706e-02      -7.180694e-02 
       9.000000e-01       7.180706e-02       7.180713e-02 
       9.000000e-01      -7.180700e-02       7.180713e-02 
       9.000000e-01      -7.180700e-02      -7.180694e-02 
       9.000000e-01       7.180706e-02      -7.180694e-02 
       9.000000e-01       7.180706e-02       7.180713e-02 
       9.000000e-01      -7.180700e-02       7.180713e-02 
       1.000000e+00      -7.180699e-02      -7.180692e-02 
       1.000000e+00       7.180707e-02      -7.180692e-02 
       1.000000e+00       7.180707e-02       7.180715e-02 
       1.000000e+00      -7.180699e-02       7.180715e-02 
       1.000000e+00      -7.180699e-02      -7.180692e-02 
       1.000000e+00       7.180707e-02      -7.180692e-02 
       1.000000e+00       7.180707e-02       7.180715e-02 
       1.000000e+00      -7.180699e-02       7.180715e-02 
       1.100000e+00      -7.180699e-02      -7.180690e-02 
       1.100000e+00       7.180708e-02      -7.180690e-02 
       1.100000e+00       7.180708e-02       7.180717e-02 
       1.100000e+00      -7.180699e-02       7.180717e-02 
       1.100000e+00      -7.180699e-02      -7.180690e-02 
       1.100000e+00       7.180708e-02      -7.180690e-02 
       1.100000e+00       7.180708e-02       7.180717e-02 
       1.100000e+00      -7.180699e-02       7.180717e-02 
       1.200000e+00      -7.180698e-02      -7.180687e-02 
       1.200000e+00       7.180709e-02      -7.180687e-02 
       1.200000e+00       7.180709e-02       7.180720e-02 
       1.200000e+00      -7.180698e-02       7.180720e-02 
       1.200000e+00      -7.180698e-02      -7.180687e-02 
       1.200000e+00       7.180709e-02      -7.180687e-02 
       1.200000e+00       7.180709e-02       7.180720e-02 
       1.200000e+00      -7.180698e-02       7.180720e-02 
       1.300000e+00      -7.180697e-02      -7.180684e-02 
       1.300000e+00       7.180710e-02      -7.180684e-02 
       1.300000e+00       7.180710e-02       7.180722e-02 
       1.300000e+00      -7.180697e-02       7.180722e-02 
       1.300000e+00      -7.180697e-02      -7.180684e-02 
       1.300000e+00       7.180710e-02      -7.180684e-02 
       1.300000e+00       7.180710e-02       7.180722e-02 
       1.300000e+00      -7.180697e-02       7.180722e-02 
       1.400000e+00      -7.180696e-02      -7.180681e-02 
       1.400000e+00       7.180711e-02      -7.180681e-02 
       1.400000e+00       7.180711e-02       7.180725e-02 
       1.400000e+00      -7.180696e-02       7.180725e-02 
       1.400000e+00      -7.180696e-02      -7.180681e-02 
       1.400000e+00       7.180711e-02      -7.180681e-02 
       1.400000e+00       7.180711e-02       7.180725e-02 
       1.400000e+00      -7.180696e-02       7.180725e-02 
       1.500000e+00      -7.180695e-02      -7.180678e-02 
       1.500000e+00       7.180712e-02      -7.180678e-02 
       1.500000e+00       7.180712e-02       7.180728e-02 
       1.500000e+00      -7.180695e-02       7.180728e-02 
       1.500000e+00      -7.180695e-02      -7.180678e-02 
       1.500000e+00       7.180712e-02      -7.180678e-02 
       1.500000e+00       7.180712e-02       7.180728e-02 
       1.500000e+00      -7.180695e-02       7.180728e-02 
       1.600000e+00      -7.180694e-02      -7.180675e-02 
       1.600000e+00       7.180713e-02      -7.180675e-02 
       1.600000e+00       7.180713e-02       7.180732e-02 
       1.600000e+00      -7.180694e-02       7.180732e-02 
       1.600000e+00      -7.180694e-02      -7.180675e-02 
       1.600000e+00       7.180713e-02      -7.180675e-02 
       1.600000e+00       7.180713e-02       7.180732e-02 
       1.600000e+00      -7.180694e-02       7.180732e-02 
       1.700000e+00      -7.180693e-02      -7.180672e-02 
       1.700000e+00       7.180714e-02      -7.180672e-02 
       1.700000e+00       7.180714e-02       7.180735e-02 
       1.700000e+00      -7.180693e-02       7.180735e-02 
       1.700000e+00      -7.180693e-02      -7.180672e-02 
       1.700000e+00       7.180714e-02      -7.180672e-02 
       1.700000e+00       7.180714e-02       7.180735e-02 
       1.700000e+00      -7.180693e-02       7.180735e-02 
       1.800000e+00      -7.180691e-02      -7.180668e-02 
       1.800000e+00       7.180715e-02      -7.180668e-02 
       1.800000e+00       7.180715e-02       7.180739e-02 
       1.800000e+00      -7.180691e-02       7.180739e-02 
       1.800000e+00      -7.180691e-02      -7.180668e-02 
       1.800000e+00       7.180715e-02      -7.180668e-02 
       1.800000e+00       7.180715e-02       7.180739e-02 
       1.800000e+00      -7.180691e-02       7.180739e-02 
       1.900000e+00      -7.180690e-02      -7.180664e-02 
       1.900000e+00       7.180716e-02      -7.180664e-02 
       1.900000e+00       7.180716e-02       7.180742e-02 
       1.900000e+00      -7.180690e-02       7.180742e-02 
       1.900000e+00      -7.180690e-02      -7.180664e-02 
       1.900000e+00       7.180716e-02      -7.180664e-02 
       1.900000e+00       7.180716e-02       7.180742e-02 
       1.900000e+00      -7.180690e-02       7.180742e-02 
       2.000000e+00      -7.180689e-02      -7.180660e-02 
       2.000000e+00       7.180718e-02      -7.180660e-02 
       2.000000e+00       7.180718e-02       7.180746e-02 
       2.000000e+00      -7.180689e-02       7.180746e-02 
       2.000000e+00      -7.180689e-02      -7.180660e-02 
       2.000000e+00       7.180718e-02      -7.180660e-02 
       2.000000e+00       7.180718e-02       7.180746e-02 
       2.000000e+00      -7.180689e-02       7.180746e-02 
       2.100000e+00      -7.180687e-02      -7.180656e-02 
[...]
POINT_DATA       800 
VECTORS Displacements float
       1.02264775e-24      -1.38777878e-17      -1.38777878e-17 
       4.28320170e-25       1.38777878e-17      -1.38777878e-17 
      -1.02264775e-24       1.38777878e-17       1.38777878e-17 
      -4.28320170e-25      -1.38777878e-17       1.38777878e-17 
       2.32986574e-09       4.10386142e-10       1.21736989e-09 
       1.15488258e-09       4.10386183e-10       1.21736886e-09 
      -2.33058274e-09       4.10387183e-10       1.21736883e-09 
      -1.15559957e-09       4.10387155e-10       1.21736986e-09 
       2.32986574e-09       4.10386142e-10       1.21736989e-09 
       1.15488258e-09       4.10386183e-10       1.21736886e-09 
      -2.33058274e-09       4.10387183e-10       1.21736883e-09 
      -1.15559957e-09       4.10387155e-10       1.21736986e-09 
       4.61495694e-09       1.63106535e-09       4.83838979e-09 
       2.28756739e-09       1.63106538e-09       4.83838770e-09 
      -4.61639155e-09       1.63106735e-09       4.83838757e-09 
      -2.28900199e-09       1.63106734e-09       4.83838965e-09 
       4.61495694e-09       1.63106535e-09       4.83838979e-09 
       2.28756739e-09       1.63106538e-09       4.83838770e-09 
      -4.61639155e-09       1.63106735e-09       4.83838757e-09 
      -2.28900199e-09       1.63106734e-09       4.83838965e-09 
       6.85527357e-09       3.64631716e-09       1.08164266e-08 
       3.39805445e-09       3.64631714e-09       1.08164235e-08 
      -6.85742640e-09       3.64632008e-09       1.08164231e-08 
      -3.40020728e-09       3.64632011e-09       1.08164263e-08 
       6.85527357e-09       3.64631716e-09       1.08164266e-08 
       3.39805445e-09       3.64631714e-09       1.08164235e-08 
      -6.85742640e-09       3.64632008e-09       1.08164231e-08 
      -3.40020728e-09       3.64632011e-09       1.08164263e-08 
       9.05081565e-09       6.44042109e-09       1.91048473e-08 
       4.48634374e-09       6.44042104e-09       1.91048430e-08 
      -9.05368730e-09       6.44042487e-09       1.91048424e-08 
      -4.48921539e-09       6.44042492e-09       1.91048467e-08 
       9.05081565e-09       6.44042109e-09       1.91048473e-08 
       4.48634374e-09       6.44042104e-09       1.91048430e-08 
      -9.05368730e-09       6.44042487e-09       1.91048424e-08 
      -4.48921539e-09       6.44042492e-09       1.91048467e-08 
       1.12015832e-08       9.99765669e-09       2.96570186e-08 
       5.55243529e-09       9.99765661e-09       2.96570133e-08 
      -1.12051742e-08       9.99766134e-09       2.96570123e-08 
      -5.55602631e-09       9.99766142e-09       2.96570177e-08 
       1.12015832e-08       9.99765669e-09       2.96570186e-08 
       5.55243529e-09       9.99765661e-09       2.96570133e-08 
      -1.12051742e-08       9.99766134e-09       2.96570123e-08 
      -5.55602631e-09       9.99766142e-09       2.96570177e-08 
       1.33075764e-08       1.43023035e-08       4.24263076e-08 
       6.59632915e-09       1.43023034e-08       4.24263011e-08 
      -1.33118873e-08       1.43023090e-08       4.24262997e-08 
      -6.60064003e-09       1.43023091e-08       4.24263063e-08 
       1.33075764e-08       1.43023035e-08       4.24263076e-08 
       6.59632915e-09       1.43023034e-08       4.24263011e-08 
      -1.33118873e-08       1.43023090e-08       4.24262997e-08 
      -6.60064003e-09       1.43023091e-08       4.24263063e-08 
       1.53687950e-08       1.93386411e-08       5.73660811e-08 
       7.61802543e-09       1.93386409e-08       5.73660734e-08 
      -1.53738262e-08       1.93386474e-08       5.73660716e-08 
      -7.62305663e-09       1.93386476e-08       5.73660793e-08 
       1.53687950e-08       1.93386411e-08       5.73660811e-08 
       7.61802543e-09       1.93386409e-08       5.73660734e-08 
      -1.53738262e-08       1.93386474e-08       5.73660716e-08 
      -7.62305663e-09       1.93386476e-08       5.73660793e-08 
       1.73852389e-08       2.50909489e-08       7.44297060e-08 
       8.61752369e-09       2.50909487e-08       7.44296971e-08 
      -1.73909914e-08       2.50909560e-08       7.44296948e-08 
      -8.62327620e-09       2.50909562e-08       7.44297037e-08 
       1.73852389e-08       2.50909489e-08       7.44297060e-08 
       8.61752369e-09       2.50909487e-08       7.44296971e-08 
      -1.73909914e-08       2.50909560e-08       7.44296948e-08 
      -8.62327620e-09       2.50909562e-08       7.44297037e-08 
       1.93569085e-08       3.15435066e-08       9.35705492e-08 
       9.59482449e-09       3.15435063e-08       9.35705391e-08 
      -1.93633825e-08       3.15435145e-08       9.35705362e-08 
      -9.60129842e-09       3.15435148e-08       9.35705463e-08 
       1.93569085e-08       3.15435066e-08       9.35705492e-08 
       9.59482449e-09       3.15435063e-08       9.35705391e-08 
      -1.93633825e-08       3.15435145e-08       9.35705362e-08 
      -9.60129842e-09       3.15435148e-08       9.35705463e-08 
       2.12838036e-08       3.86805937e-08       1.14741978e-07 
       1.05499272e-08       3.86805933e-08       1.14741966e-07 
      -2.12909996e-08       3.86806023e-08       1.14741963e-07 
      -1.05571235e-08       3.86806026e-08       1.14741974e-07 
       2.12838036e-08       3.86805937e-08       1.14741978e-07 
       1.05499274e-08       3.86805933e-08       1.14741966e-07 
      -2.12909995e-08       3.86806023e-08       1.14741963e-07 
      -1.05571234e-08       3.86806027e-08       1.14741974e-07 
       2.31684090e-08       4.64867657e-08       1.37898176e-07 
       1.14841292e-08       4.64867653e-08       1.37898164e-07 
      -2.31760708e-08       4.64867746e-08       1.37898160e-07 
      -1.14917911e-08       4.64867751e-08       1.37898172e-07 
       2.31684090e-08       4.64867657e-08       1.37898176e-07 
       1.14841292e-08       4.64867653e-08       1.37898164e-07 
      -2.31760708e-08       4.64867746e-08       1.37898160e-07 
      -1.14917911e-08       4.64867751e-08       1.37898172e-07 
       2.50129528e-08       5.49476810e-08       1.62996602e-07 
       1.23984700e-08       5.49476804e-08       1.62996589e-07 
      -2.50210814e-08       5.49476901e-08       1.62996584e-07 
      -1.24065986e-08       5.49476907e-08       1.62996597e-07 
       2.50129528e-08       5.49476810e-08       1.62996602e-07 
       1.23984700e-08       5.49476804e-08       1.62996589e-07 
      -2.50210814e-08       5.49476901e-08       1.62996584e-07 
      -1.24065986e-08       5.49476907e-08       1.62996597e-07 
       2.68174347e-08       6.40492739e-08       1.89995532e-07 
       1.32929487e-08       6.40492732e-08       1.89995518e-07 
      -2.68260318e-08       6.40492832e-08       1.89995512e-07 
      -1.33015459e-08       6.40492838e-08       1.89995526e-07 
       2.68174347e-08       6.40492739e-08       1.89995532e-07 
       1.32929487e-08       6.40492732e-08       1.89995518e-07 
      -2.68260318e-08       6.40492832e-08       1.89995512e-07 
      -1.33015459e-08       6.40492838e-08       1.89995526e-07 
       2.85818549e-08       7.37774786e-08       2.18853240e-07 
       1.41675662e-08       7.37774779e-08       2.18853226e-07 
      -2.85909214e-08       7.37774882e-08       2.18853219e-07 
      -1.41766328e-08       7.37774889e-08       2.18853234e-07 
       2.85818549e-08       7.37774786e-08       2.18853240e-07 
       1.41675662e-08       7.37774779e-08       2.18853226e-07 
      -2.85909214e-08       7.37774882e-08       2.18853219e-07 
      -1.41766328e-08       7.37774889e-08       2.18853234e-07 
       3.03062129e-08       8.41182296e-08       2.49528004e-07 
       1.50223221e-08       8.41182288e-08       2.49527988e-07 
      -3.03157508e-08       8.41182394e-08       2.49527981e-07 
      -1.50318598e-08       8.41182402e-08       2.49527996e-07 
       3.03062129e-08       8.41182296e-08       2.49528004e-07 
       1.50223221e-08       8.41182288e-08       2.49527988e-07 
      -3.03157508e-08       8.41182394e-08       2.49527981e-07 
      -1.50318598e-08       8.41182402e-08       2.49527996e-07 
       3.19905094e-08       9.50574611e-08       2.81978097e-07 
       1.58572162e-08       9.50574602e-08       2.81978081e-07 
      -3.20005196e-08       9.50574712e-08       2.81978073e-07 
      -1.58672262e-08       9.50574720e-08       2.81978089e-07 
       3.19905094e-08       9.50574611e-08       2.81978097e-07 
       1.58572162e-08       9.50574602e-08       2.81978081e-07 
      -3.20005196e-08       9.50574712e-08       2.81978073e-07 
      -1.58672262e-08       9.50574720e-08       2.81978089e-07 
       3.36347441e-08       1.06581108e-07       3.16161797e-07 
       1.66722491e-08       1.06581107e-07       3.16161780e-07 
      -3.36452273e-08       1.06581118e-07       3.16161771e-07 
      -1.66827328e-08       1.06581119e-07       3.16161788e-07 
       3.36347441e-08       1.06581108e-07       3.16161797e-07 
       1.66722491e-08       1.06581107e-07       3.16161780e-07 
      -3.36452273e-08       1.06581118e-07       3.16161771e-07 
      -1.66827328e-08       1.06581119e-07       3.16161788e-07 
       3.52389171e-08       1.18675103e-07       3.52037378e-07 
       1.74674206e-08       1.18675102e-07       3.52037360e-07 
      -3.52498748e-08       1.18675114e-07       3.52037350e-07 
      -1.74783785e-08       1.18675115e-07       3.52037368e-07 
       3.52389171e-08       1.18675103e-07       3.52037378e-07 
       1.74674206e-08       1.18675102e-07       3.52037360e-07 
      -3.52498748e-08       1.18675114e-07       3.52037350e-07 
      -1.74783785e-08       1.18675115e-07       3.52037368e-07 
       3.68030284e-08       1.31325382e-07       3.89563116e-07 
       1.82427307e-08       1.31325381e-07       3.89563097e-07 
      -3.68144617e-08       1.31325393e-07       3.89563087e-07 
      -1.82541640e-08       1.31325394e-07       3.89563106e-07 
       3.68030284e-08       1.31325382e-07       3.89563116e-07 
       1.82427307e-08       1.31325381e-07       3.89563097e-07 
      -3.68144617e-08       1.31325393e-07       3.89563087e-07 
      -1.82541640e-08       1.31325394e-07       3.89563106e-07 
       3.83270780e-08       1.44517879e-07       4.28697288e-07 
       1.89981790e-08       1.44517878e-07       4.28697268e-07 
      -3.83389882e-08       1.44517890e-07       4.28697256e-07 
      -1.90100895e-08       1.44517892e-07       4.28697276e-07 
       3.83270780e-08       1.44517879e-07       4.28697288e-07 
       1.89981790e-08       1.44517878e-07       4.28697268e-07 
      -3.83389882e-08       1.44517890e-07       4.28697256e-07 
      -1.90100895e-08       1.44517892e-07       4.28697276e-07 
       3.98135125e-08       1.58238805e-07       4.69398985e-07 
       1.97350247e-08       1.58238803e-07       4.69398965e-07 
      -3.98257201e-08       1.58238815e-07       4.69398953e-07 
      -1.97472327e-08       1.58238817e-07       4.69398973e-07 
       3.98135125e-08       1.58238805e-07       4.69398985e-07 
       1.97350247e-08       1.58238803e-07       4.69398965e-07 
      -3.98257201e-08       1.58238815e-07       4.69398953e-07 
      -1.97472327e-08       1.58238817e-07       4.69398973e-07 
       4.12645980e-08       1.72475471e-07       5.11630576e-07 
       2.04543453e-08       1.72475470e-07       5.11630555e-07 
      -4.12771048e-08       1.72475482e-07       5.11630542e-07 
      -2.04668522e-08       1.72475483e-07       5.11630563e-07 
       4.12645980e-08       1.72475471e-07       5.11630576e-07 
       2.04543453e-08       1.72475470e-07       5.11630555e-07 
      -4.12771048e-08       1.72475482e-07       5.11630542e-07 
      -2.04668522e-08       1.72475483e-07       5.11630563e-07 
       4.26803353e-08       1.87215468e-07       5.55355244e-07 
       2.11561413e-08       1.87215466e-07       5.55355223e-07 
      -4.26931419e-08       1.87215478e-07       5.55355209e-07 
      -2.11689475e-08       1.87215480e-07       5.55355230e-07 
       4.26803353e-08       1.87215468e-07       5.55355244e-07 
       2.11561413e-08       1.87215466e-07       5.55355223e-07 
      -4.26931419e-08       1.87215478e-07       5.55355209e-07 
      -2.11689475e-08       1.87215480e-07       5.55355230e-07 
       4.40607235e-08       2.02446384e-07       6.00536174e-07 
       2.18404117e-08       2.02446383e-07       6.00536152e-07 
      -4.40738321e-08       2.02446395e-07       6.00536137e-07 
      -2.18535203e-08       2.02446397e-07       6.00536159e-07 
       4.40607235e-08       2.02446384e-07       6.00536174e-07 
       2.18404117e-08       2.02446383e-07       6.00536152e-07 
      -4.40738321e-08       2.02446395e-07       6.00536137e-07 
      -2.18535203e-08       2.02446397e-07       6.00536159e-07 
       4.54057623e-08       2.18155810e-07       6.47136550e-07 
       2.25071570e-08       2.18155808e-07       6.47136527e-07 
      -4.54191751e-08       2.18155820e-07       6.47136511e-07 
      -2.25205694e-08       2.18155822e-07       6.47136534e-07 
       4.54057623e-08       2.18155810e-07       6.47136550e-07 
       2.25071570e-08       2.18155808e-07       6.47136527e-07 
      -4.54191751e-08       2.18155820e-07       6.47136511e-07 
      -2.25205694e-08       2.18155822e-07       6.47136534e-07 
       4.67154528e-08       2.34331332e-07       6.95119557e-07 
       2.31563773e-08       2.34331330e-07       6.95119533e-07 
      -4.67291703e-08       2.34331343e-07       6.95119516e-07 
      -2.31700947e-08       2.34331344e-07       6.95119540e-07 
       4.67154528e-08       2.34331332e-07       6.95119557e-07 
       2.31563773e-08       2.34331330e-07       6.95119533e-07 
      -4.67291703e-08       2.34331343e-07       6.95119516e-07 
      -2.31700947e-08       2.34331344e-07       6.95119540e-07 
       4.79897944e-08       2.50960542e-07       7.44448378e-07 
       2.37880720e-08       2.50960540e-07       7.44448354e-07 
      -4.80038187e-08       2.50960552e-07       7.44448336e-07 
      -2.38020963e-08       2.50960554e-07       7.44448360e-07 
       4.79897944e-08       2.50960542e-07       7.44448378e-07 
       2.37880720e-08       2.50960540e-07       7.44448354e-07 
      -4.80038187e-08       2.50960552e-07       7.44448336e-07 
      -2.38020963e-08       2.50960554e-07       7.44448360e-07 
       4.92287877e-08       2.68031028e-07       7.95086199e-07 
       2.44022429e-08       2.68031026e-07       7.95086174e-07 
      -4.92431185e-08       2.68031038e-07       7.95086155e-07 
      -2.44165741e-08       2.68031040e-07       7.95086180e-07 
       4.92287877e-08       2.68031028e-07       7.95086199e-07 
       2.44022429e-08       2.68031026e-07       7.95086174e-07 
      -4.92431185e-08       2.68031038e-07       7.95086155e-07 
      -2.44165741e-08       2.68031040e-07       7.95086180e-07 
       5.04324316e-08       2.85530379e-07       8.46996203e-07 
       2.49988883e-08       2.85530376e-07       8.46996178e-07 
      -5.04470719e-08       2.85530388e-07       8.46996158e-07 
      -2.50135286e-08       2.85530391e-07       8.46996184e-07 
       5.04324316e-08       2.85530379e-07       8.46996203e-07 
       2.49988883e-08       2.85530376e-07       8.46996178e-07 
      -5.04470719e-08       2.85530388e-07       8.46996158e-07 
      -2.50135286e-08       2.85530391e-07       8.46996184e-07 
       5.16007268e-08       3.03446184e-07       9.00141576e-07 
       2.55780086e-08       3.03446181e-07       9.00141550e-07 
      -5.16156780e-08       3.03446193e-07       9.00141529e-07 
      -2.55929598e-08       3.03446196e-07       9.00141555e-07 
       5.16007268e-08       3.03446184e-07       9.00141576e-07 
       2.55780086e-08       3.03446181e-07       9.00141550e-07 
      -5.16156775e-08       3.03446193e-07       9.00141529e-07 
      -2.55929593e-08       3.03446196e-07       9.00141555e-07 
       5.27360906e-08       3.21766308e-07       9.54486319e-07 
       2.61408331e-08       3.21766305e-07       9.54486292e-07 
      -5.27512318e-08       3.21766317e-07       9.54486271e-07 
      -2.61559743e-08       3.21766320e-07       9.54486297e-07 
       5.27360906e-08       3.21766308e-07       9.54486319e-07 
       2.61408331e-08       3.21766305e-07       9.54486292e-07 
      -5.27512318e-08       3.21766317e-07       9.54486271e-07 
      -2.61559743e-08       3.21766320e-07       9.54486297e-07 
       5.38408185e-08       3.40479719e-07       1.00999771e-06 
       2.66884688e-08       3.40479717e-07       1.00999768e-06 
      -5.38561520e-08       3.40479728e-07       1.00999766e-06 
      -2.67038023e-08       3.40479731e-07       1.00999768e-06 
       5.38408185e-08       3.40479719e-07       1.00999771e-06 
       2.66884688e-08       3.40479717e-07       1.00999768e-06 
      -5.38561520e-08       3.40479728e-07       1.00999766e-06 
      -2.67038023e-08       3.40479731e-07       1.00999768e-06 
       5.49149113e-08       3.59575662e-07       1.06664383e-06 
       2.72209166e-08       3.59575659e-07       1.06664381e-06 
      -5.49304371e-08       3.59575671e-07       1.06664378e-06 
      -2.72364424e-08       3.59575673e-07       1.06664381e-06 
       5.49149113e-08       3.59575662e-07       1.06664383e-06 
       2.72209166e-08       3.59575659e-07       1.06664381e-06 
      -5.49304371e-08       3.59575671e-07       1.06664378e-06 
      -2.72364424e-08       3.59575673e-07       1.06664381e-06 
       5.59583677e-08       3.79043379e-07       1.12439279e-06 
       2.77381758e-08       3.79043377e-07       1.12439277e-06 
      -5.59740885e-08       3.79043388e-07       1.12439274e-06 
      -2.77538965e-08       3.79043391e-07       1.12439277e-06 
       5.59583677e-08       3.79043379e-07       1.12439279e-06 
       2.77381758e-08       3.79043377e-07       1.12439277e-06 
      -5.59740885e-08       3.79043388e-07       1.12439274e-06 
      -2.77538965e-08       3.79043391e-07       1.12439277e-06 
       5.69711887e-08       3.98872116e-07       1.18321268e-06 
       2.82402461e-08       3.98872113e-07       1.18321265e-06 
      -5.69871057e-08       3.98872124e-07       1.18321263e-06 
      -2.82561636e-08       3.98872127e-07       1.18321265e-06 
       5.69711887e-08       3.98872116e-07       1.18321268e-06 
       2.82402461e-08       3.98872113e-07       1.18321265e-06 
      -5.69871057e-08       3.98872124e-07       1.18321263e-06 
      -2.82561636e-08       3.98872127e-07       1.18321265e-06 
       5.79533737e-08       4.19051115e-07       1.24307158e-06 
       2.87271282e-08       4.19051112e-07       1.24307155e-06 
      -5.79694888e-08       4.19051123e-07       1.24307153e-06 
      -2.87432433e-08       4.19051126e-07       1.24307156e-06 
       5.79533737e-08       4.19051115e-07       1.24307158e-06 
       2.87271282e-08       4.19051112e-07       1.24307155e-06 
      -5.79694888e-08       4.19051123e-07       1.24307153e-06 
      -2.87432433e-08       4.19051126e-07       1.24307156e-06 
       5.89049227e-08       4.39569621e-07       1.30393760e-06 
       2.91988216e-08       4.39569618e-07       1.30393757e-06 
      -5.89212372e-08       4.39569629e-07       1.30393754e-06 
      -2.92151361e-08       4.39569632e-07       1.30393757e-06 
       5.89049227e-08       4.39569621e-07       1.30393760e-06 
       2.91988216e-08       4.39569618e-07       1.30393757e-06 
      -5.89212372e-08       4.39569629e-07       1.30393754e-06 
      -2.92151361e-08       4.39569632e-07       1.30393757e-06 
       5.98258372e-08       4.60416878e-07       1.36577881e-06 
       2.96553275e-08       4.60416875e-07       1.36577878e-06 
      -5.98423506e-08       4.60416885e-07       1.36577876e-06 
      -2.96718410e-08       4.60416889e-07       1.36577879e-06 
       5.98258372e-08       4.60416878e-07       1.36577881e-06 
       2.96553275e-08       4.60416875e-07       1.36577878e-06 