# vtk DataFile Version 2.0
./output/onsasExample_nonLinearCantileverBlade_staitc3D_no_pitch numElements=10/onsasExample_nonLinearCantileverBlade_staitc3D_no_pitch numElements=10_0011.vtk
ASCII
DATASET UNSTRUCTURED_GRID

POINTS 800 float
      -2.448921e-24      -7.180703e-02      -7.180703e-02 
      -8.305272e-25       7.180703e-02      -7.180703e-02 
       2.448921e-24       7.180703e-02       7.180703e-02 
       8.305272e-25      -7.180703e-02       7.180703e-02 
       1.000000e-01      -7.180703e-02      -7.180703e-02 
       1.000000e-01       7.180703e-02      -7.180703e-02 
       1.000000e-01       7.180703e-02       7.180703e-02 
       1.000000e-01      -7.180703e-02       7.180703e-02 
       1.000000e-01      -7.180703e-02      -7.180703e-02 
       1.000000e-01       7.180703e-02      -7.180703e-02 
       1.000000e-01       7.180703e-02       7.180703e-02 
       1.000000e-01      -7.180703e-02       7.180703e-02 
       2.000000e-01      -7.180703e-02      -7.180703e-02 
       2.000000e-01       7.180703e-02      -7.180703e-02 
       2.000000e-01       7.180703e-02       7.180704e-02 
       2.000000e-01      -7.180703e-02       7.180704e-02 
       2.000000e-01      -7.180703e-02      -7.180703e-02 
       2.000000e-01       7.180703e-02      -7.180703e-02 
       2.000000e-01       7.180703e-02       7.180704e-02 
       2.000000e-01      -7.180703e-02       7.180704e-02 
       3.000000e-01      -7.180703e-02      -7.180702e-02 
       3.000000e-01       7.180703e-02      -7.180702e-02 
       3.000000e-01       7.180703e-02       7.180705e-02 
       3.000000e-01      -7.180703e-02       7.180705e-02 
       3.000000e-01      -7.180703e-02      -7.180702e-02 
       3.000000e-01       7.180703e-02      -7.180702e-02 
       3.000000e-01       7.180703e-02       7.180705e-02 
       3.000000e-01      -7.180703e-02       7.180705e-02 
       4.000000e-01      -7.180703e-02      -7.180701e-02 
       4.000000e-01       7.180703e-02      -7.180701e-02 
       4.000000e-01       7.180703e-02       7.180706e-02 
       4.000000e-01      -7.180703e-02       7.180706e-02 
       4.000000e-01      -7.180703e-02      -7.180701e-02 
       4.000000e-01       7.180703e-02      -7.180701e-02 
       4.000000e-01       7.180703e-02       7.180706e-02 
       4.000000e-01      -7.180703e-02       7.180706e-02 
       5.000000e-01      -7.180703e-02      -7.180700e-02 
       5.000000e-01       7.180703e-02      -7.180700e-02 
       5.000000e-01       7.180703e-02       7.180707e-02 
       5.000000e-01      -7.180703e-02       7.180707e-02 
       5.000000e-01      -7.180703e-02      -7.180700e-02 
       5.000000e-01       7.180703e-02      -7.180700e-02 
       5.000000e-01       7.180703e-02       7.180707e-02 
       5.000000e-01      -7.180703e-02       7.180707e-02 
       6.000000e-01      -7.180703e-02      -7.180698e-02 
       6.000000e-01       7.180703e-02      -7.180698e-02 
       6.000000e-01       7.180703e-02       7.180708e-02 
       6.000000e-01      -7.180703e-02       7.180708e-02 
       6.000000e-01      -7.180703e-02      -7.180698e-02 
       6.000000e-01       7.180703e-02      -7.180698e-02 
       6.000000e-01       7.180703e-02       7.180708e-02 
       6.000000e-01      -7.180703e-02       7.180708e-02 
       7.000000e-01      -7.180703e-02      -7.180696e-02 
       7.000000e-01       7.180703e-02      -7.180696e-02 
       7.000000e-01       7.180703e-02       7.180710e-02 
       7.000000e-01      -7.180703e-02       7.180710e-02 
       7.000000e-01      -7.180703e-02      -7.180696e-02 
       7.000000e-01       7.180703e-02      -7.180696e-02 
       7.000000e-01       7.180703e-02       7.180710e-02 
       7.000000e-01      -7.180703e-02       7.180710e-02 
       8.000000e-01      -7.180703e-02      -7.180694e-02 
       8.000000e-01       7.180703e-02      -7.180694e-02 
       8.000000e-01       7.180703e-02       7.180712e-02 
       8.000000e-01      -7.180703e-02       7.180712e-02 
       8.000000e-01      -7.180703e-02      -7.180694e-02 
       8.000000e-01       7.180703e-02      -7.180694e-02 
       8.000000e-01       7.180703e-02       7.180712e-02 
       8.000000e-01      -7.180703e-02       7.180712e-02 
       9.000000e-01      -7.180703e-02      -7.180692e-02 
       9.000000e-01       7.180704e-02      -7.180692e-02 
       9.000000e-01       7.180704e-02       7.180714e-02 
       9.000000e-01      -7.180703e-02       7.180714e-02 
       9.000000e-01      -7.180703e-02      -7.180692e-02 
       9.000000e-01       7.180704e-02      -7.180692e-02 
       9.000000e-01       7.180704e-02       7.180714e-02 
       9.000000e-01      -7.180703e-02       7.180714e-02 
       1.000000e+00      -7.180703e-02      -7.180690e-02 
       1.000000e+00       7.180704e-02      -7.180690e-02 
       1.000000e+00       7.180704e-02       7.180717e-02 
       1.000000e+00      -7.180703e-02       7.180717e-02 
       1.000000e+00      -7.180703e-02      -7.180690e-02 
       1.000000e+00       7.180704e-02      -7.180690e-02 
       1.000000e+00       7.180704e-02       7.180717e-02 
       1.000000e+00      -7.180703e-02       7.180717e-02 
       1.100000e+00      -7.180703e-02      -7.180687e-02 
       1.100000e+00       7.180704e-02      -7.180687e-02 
       1.100000e+00       7.180704e-02       7.180720e-02 
       1.100000e+00      -7.180703e-02       7.180720e-02 
       1.100000e+00      -7.180703e-02      -7.180687e-02 
       1.100000e+00       7.180704e-02      -7.180687e-02 
       1.100000e+00       7.180704e-02       7.180720e-02 
       1.100000e+00      -7.180703e-02       7.180720e-02 
       1.200000e+00      -7.180703e-02      -7.180684e-02 
       1.200000e+00       7.180704e-02      -7.180684e-02 
       1.200000e+00       7.180704e-02       7.180723e-02 
       1.200000e+00      -7.180703e-02       7.180723e-02 
       1.200000e+00      -7.180703e-02      -7.180684e-02 
       1.200000e+00       7.180704e-02      -7.180684e-02 
       1.200000e+00       7.180704e-02       7.180723e-02 
       1.200000e+00      -7.180703e-02       7.180723e-02 
       1.300000e+00      -7.180703e-02      -7.180681e-02 
       1.300000e+00       7.180704e-02      -7.180681e-02 
       1.300000e+00       7.180704e-02       7.180726e-02 
       1.300000e+00      -7.180703e-02       7.180726e-02 
       1.300000e+00      -7.180703e-02      -7.180681e-02 
       1.300000e+00       7.180704e-02      -7.180681e-02 
       1.300000e+00       7.180704e-02       7.180726e-02 
       1.300000e+00      -7.180703e-02       7.180726e-02 
       1.400000e+00      -7.180703e-02      -7.180677e-02 
       1.400000e+00       7.180704e-02      -7.180677e-02 
       1.400000e+00       7.180704e-02       7.180729e-02 
       1.400000e+00      -7.180703e-02       7.180729e-02 
       1.400000e+00      -7.180703e-02      -7.180677e-02 
       1.400000e+00       7.180704e-02      -7.180677e-02 
       1.400000e+00       7.180704e-02       7.180729e-02 
       1.400000e+00      -7.180703e-02       7.180729e-02 
       1.500000e+00      -7.180703e-02      -7.180674e-02 
       1.500000e+00       7.180704e-02      -7.180674e-02 
       1.500000e+00       7.180704e-02       7.180733e-02 
       1.500000e+00      -7.180703e-02       7.180733e-02 
       1.500000e+00      -7.180703e-02      -7.180674e-02 
       1.500000e+00       7.180704e-02      -7.180674e-02 
       1.500000e+00       7.180704e-02       7.180733e-02 
       1.500000e+00      -7.180703e-02       7.180733e-02 
       1.600000e+00      -7.180703e-02      -7.180670e-02 
       1.600000e+00       7.180704e-02      -7.180670e-02 
       1.600000e+00       7.180704e-02       7.180737e-02 
       1.600000e+00      -7.180703e-02       7.180737e-02 
       1.600000e+00      -7.180703e-02      -7.180670e-02 
       1.600000e+00       7.180704e-02      -7.180670e-02 
       1.600000e+00       7.180704e-02       7.180737e-02 
       1.600000e+00      -7.180703e-02       7.180737e-02 
       1.700000e+00      -7.180703e-02      -7.180666e-02 
       1.700000e+00       7.180704e-02      -7.180666e-02 
       1.700000e+00       7.180704e-02       7.180741e-02 
       1.700000e+00      -7.180703e-02       7.180741e-02 
       1.700000e+00      -7.180703e-02      -7.180666e-02 
       1.700000e+00       7.180704e-02      -7.180666e-02 
       1.700000e+00       7.180704e-02       7.180741e-02 
       1.700000e+00      -7.180703e-02       7.180741e-02 
       1.800000e+00      -7.180703e-02      -7.180661e-02 
       1.800000e+00       7.180704e-02      -7.180661e-02 
       1.800000e+00       7.180704e-02       7.180745e-02 
       1.800000e+00      -7.180703e-02       7.180745e-02 
       1.800000e+00      -7.180703e-02      -7.180661e-02 
       1.800000e+00       7.180704e-02      -7.180661e-02 
       1.800000e+00       7.180704e-02       7.180745e-02 
       1.800000e+00      -7.180703e-02       7.180745e-02 
       1.900000e+00      -7.180702e-02      -7.180657e-02 
       1.900000e+00       7.180704e-02      -7.180657e-02 
       1.900000e+00       7.180704e-02       7.180750e-02 
       1.900000e+00      -7.180702e-02       7.180750e-02 
       1.900000e+00      -7.180702e-02      -7.180657e-02 
       1.900000e+00       7.180704e-02      -7.180657e-02 
       1.900000e+00       7.180704e-02       7.180750e-02 
       1.900000e+00      -7.180702e-02       7.180750e-02 
       2.000000e+00      -7.180702e-02      -7.180652e-02 
       2.000000e+00       7.180704e-02      -7.180652e-02 
       2.000000e+00       7.180704e-02       7.180754e-02 
       2.000000e+00      -7.180702e-02       7.180754e-02 
       2.000000e+00      -7.180702e-02      -7.180652e-02 
       2.000000e+00       7.180704e-02      -7.180652e-02 
       2.000000e+00       7.180704e-02       7.180754e-02 
       2.000000e+00      -7.180702e-02       7.180754e-02 
       2.100000e+00      -7.180702e-02      -7.180647e-02 
[...]
POINT_DATA       800 
VECTORS Displacements float
      -2.44892120e-24      -1.38777878e-17       0.00000000e+00 
      -8.30527157e-25      -1.38777878e-17       0.00000000e+00 
       2.44892120e-24       1.38777878e-17       0.00000000e+00 
       8.30527157e-25       1.38777878e-17       0.00000000e+00 
       2.11691419e-09       2.57130706e-11       1.45315714e-09 
       2.04329466e-09       2.57130706e-11       1.45315707e-09 
      -2.11725742e-09       2.57131677e-11       1.45315701e-09 
      -2.04363790e-09       2.57131677e-11       1.45315708e-09 
       2.11691419e-09       2.57130706e-11       1.45315714e-09 
       2.04329466e-09       2.57130706e-11       1.45315707e-09 
      -2.11725742e-09       2.57131677e-11       1.45315701e-09 
      -2.04363790e-09       2.57131677e-11       1.45315708e-09 
       4.19314911e-09       1.02195724e-10       5.77551831e-09 
       4.04732459e-09       1.02195724e-10       5.77551816e-09 
      -4.19383636e-09       1.02195891e-10       5.77551793e-09 
      -4.04801184e-09       1.02195891e-10       5.77551809e-09 
       4.19314911e-09       1.02195724e-10       5.77551831e-09 
       4.04732459e-09       1.02195724e-10       5.77551816e-09 
      -4.19383636e-09       1.02195891e-10       5.77551793e-09 
      -4.04801184e-09       1.02195891e-10       5.77551809e-09 
       6.22870477e-09       2.28462971e-10       1.29114182e-08 
       6.01208983e-09       2.28462971e-10       1.29114180e-08 
      -6.22973678e-09       2.28463207e-10       1.29114175e-08 
      -6.01312183e-09       2.28463207e-10       1.29114177e-08 
       6.22870477e-09       2.28462971e-10       1.29114182e-08 
       6.01208983e-09       2.28462971e-10       1.29114180e-08 
      -6.22973678e-09       2.28463207e-10       1.29114175e-08 
      -6.01312183e-09       2.28463207e-10       1.29114177e-08 
       8.22358120e-09       4.03529862e-10       2.28051916e-08 
       7.93759042e-09       4.03529862e-10       2.28051912e-08 
      -8.22495877e-09       4.03530140e-10       2.28051903e-08 
      -7.93896798e-09       4.03530140e-10       2.28051907e-08 
       8.22358120e-09       4.03529862e-10       2.28051916e-08 
       7.93759042e-09       4.03529862e-10       2.28051912e-08 
      -8.22495877e-09       4.03530140e-10       2.28051903e-08 
      -7.93896798e-09       4.03530140e-10       2.28051907e-08 
       1.01777784e-08       6.26411367e-10       3.54011730e-08 
       9.82382631e-09       6.26411367e-10       3.54011726e-08 
      -1.01795022e-08       6.26411728e-10       3.54011712e-08 
      -9.82555015e-09       6.26411728e-10       3.54011716e-08 
       1.01777784e-08       6.26411367e-10       3.54011730e-08 
       9.82382631e-09       6.26411367e-10       3.54011726e-08 
      -1.01795022e-08       6.26411728e-10       3.54011712e-08 
      -9.82555015e-09       6.26411728e-10       3.54011716e-08 
       1.20912963e-08       8.96122565e-10       5.06436973e-08 
       1.16707976e-08       8.96122565e-10       5.06436969e-08 
      -1.20933671e-08       8.96122995e-10       5.06436949e-08 
      -1.16728683e-08       8.96122995e-10       5.06436954e-08 
       1.20912963e-08       8.96122565e-10       5.06436973e-08 
       1.16707976e-08       8.96122565e-10       5.06436969e-08 
      -1.20933671e-08       8.96122995e-10       5.06436949e-08 
      -1.16728683e-08       8.96122995e-10       5.06436954e-08 
       1.39641348e-08       1.21167842e-09       6.84770992e-08 
       1.34785040e-08       1.21167842e-09       6.84770986e-08 
      -1.39665536e-08       1.21167892e-09       6.84770960e-08 
      -1.34809227e-08       1.21167892e-09       6.84770966e-08 
       1.39641348e-08       1.21167842e-09       6.84770992e-08 
       1.34785040e-08       1.21167842e-09       6.84770986e-08 
      -1.39665536e-08       1.21167892e-09       6.84770960e-08 
      -1.34809227e-08       1.21167892e-09       6.84770966e-08 
       1.57962944e-08       1.57209401e-09       8.88457134e-08 
       1.52469459e-08       1.57209401e-09       8.88457127e-08 
      -1.57990614e-08       1.57209457e-09       8.88457093e-08 
      -1.52497129e-08       1.57209457e-09       8.88457100e-08 
       1.57962944e-08       1.57209401e-09       8.88457134e-08 
       1.52469459e-08       1.57209401e-09       8.88457127e-08 
      -1.57990614e-08       1.57209457e-09       8.88457093e-08 
      -1.52497129e-08       1.57209457e-09       8.88457100e-08 
       1.75877745e-08       1.97638432e-09       1.11693874e-07 
       1.69761231e-08       1.97638432e-09       1.11693874e-07 
      -1.75908909e-08       1.97638494e-09       1.11693870e-07 
      -1.69792395e-08       1.97638494e-09       1.11693870e-07 
       1.75877745e-08       1.97638432e-09       1.11693874e-07 
       1.69761231e-08       1.97638432e-09       1.11693874e-07 
      -1.75908909e-08       1.97638494e-09       1.11693870e-07 
      -1.69792395e-08       1.97638494e-09       1.11693870e-07 
       1.93385756e-08       2.42356438e-09       1.36965917e-07 
       1.86660356e-08       2.42356438e-09       1.36965916e-07 
      -1.93420415e-08       2.42356506e-09       1.36965911e-07 
      -1.86695016e-08       2.42356506e-09       1.36965912e-07 
       1.93385756e-08       2.42356438e-09       1.36965917e-07 
       1.86660358e-08       2.42356440e-09       1.36965916e-07 
      -1.93420415e-08       2.42356507e-09       1.36965911e-07 
      -1.86695016e-08       2.42356504e-09       1.36965912e-07 
       2.10508997e-08       2.91266650e-09       1.64607153e-07 
       2.03188115e-08       2.91266654e-09       1.64607152e-07 
      -2.10545934e-08       2.91266723e-09       1.64607146e-07 
      -2.03225052e-08       2.91266719e-09       1.64607147e-07 
       2.10508997e-08       2.91266650e-09       1.64607153e-07 
       2.03188115e-08       2.91266654e-09       1.64607152e-07 
      -2.10545934e-08       2.91266723e-09       1.64607146e-07 
      -2.03225052e-08       2.91266719e-09       1.64607147e-07 
       2.27268262e-08       3.44279212e-09       1.94566799e-07 
       2.19364555e-08       3.44279215e-09       1.94566798e-07 
      -2.27307491e-08       3.44279287e-09       1.94566791e-07 
      -2.19403784e-08       3.44279284e-09       1.94566792e-07 
       2.27268262e-08       3.44279212e-09       1.94566799e-07 
       2.19364555e-08       3.44279215e-09       1.94566798e-07 
      -2.27307491e-08       3.44279287e-09       1.94566791e-07 
      -2.19403784e-08       3.44279284e-09       1.94566792e-07 
       2.43663549e-08       4.01305991e-09       2.26795050e-07 
       2.35189670e-08       4.01305994e-09       2.26795049e-07 
      -2.43705089e-08       4.01306068e-09       2.26795041e-07 
      -2.35231212e-08       4.01306065e-09       2.26795042e-07 
       2.43663549e-08       4.01305991e-09       2.26795050e-07 
       2.35189670e-08       4.01305994e-09       2.26795049e-07 
      -2.43705089e-08       4.01306068e-09       2.26795041e-07 
      -2.35231212e-08       4.01306065e-09       2.26795042e-07 
       2.59694859e-08       4.62258858e-09       2.61242100e-07 
       2.50663468e-08       4.62258860e-09       2.61242099e-07 
      -2.59738726e-08       4.62258938e-09       2.61242090e-07 
      -2.50707335e-08       4.62258934e-09       2.61242091e-07 
       2.59694859e-08       4.62258858e-09       2.61242100e-07 
       2.50663468e-08       4.62258860e-09       2.61242099e-07 
      -2.59738726e-08       4.62258938e-09       2.61242090e-07 
      -2.50707335e-08       4.62258934e-09       2.61242091e-07 
       2.75362191e-08       5.27049684e-09       2.97858144e-07 
       2.65785944e-08       5.27049689e-09       2.97858142e-07 
      -2.75408405e-08       5.27049765e-09       2.97858132e-07 
      -2.65832156e-08       5.27049762e-09       2.97858133e-07 
       2.75362191e-08       5.27049684e-09       2.97858144e-07 
       2.65785944e-08       5.27049689e-09       2.97858142e-07 
      -2.75408405e-08       5.27049765e-09       2.97858132e-07 
      -2.65832156e-08       5.27049762e-09       2.97858133e-07 
       2.90665545e-08       5.95590340e-09       3.36593374e-07 
       2.80557098e-08       5.95590344e-09       3.36593373e-07 
      -2.90714119e-08       5.95590424e-09       3.36593362e-07 
      -2.80605672e-08       5.95590421e-09       3.36593363e-07 
       2.90665545e-08       5.95590340e-09       3.36593374e-07 
       2.80557098e-08       5.95590344e-09       3.36593373e-07 
      -2.90714119e-08       5.95590424e-09       3.36593362e-07 
      -2.80605672e-08       5.95590421e-09       3.36593363e-07 
       3.05604926e-08       6.67792695e-09       3.77397987e-07 
       2.94976934e-08       6.67792698e-09       3.77397985e-07 
      -3.05655874e-08       6.67792782e-09       3.77397973e-07 
      -2.95027884e-08       6.67792779e-09       3.77397974e-07 
       3.05604926e-08       6.67792695e-09       3.77397987e-07 
       2.94976934e-08       6.67792698e-09       3.77397985e-07 
      -3.05655874e-08       6.67792782e-09       3.77397973e-07 
      -2.95027884e-08       6.67792779e-09       3.77397974e-07 
       3.20180329e-08       7.43568621e-09       4.20222175e-07 
       3.09045451e-08       7.43568623e-09       4.20222174e-07 
      -3.20233668e-08       7.43568709e-09       4.20222160e-07 
      -3.09098791e-08       7.43568705e-09       4.20222161e-07 
       3.20180329e-08       7.43568621e-09       4.20222175e-07 
       3.09045451e-08       7.43568623e-09       4.20222174e-07 
      -3.20233668e-08       7.43568709e-09       4.20222160e-07 
      -3.09098791e-08       7.43568705e-09       4.20222161e-07 
       3.34391754e-08       8.22829986e-09       4.65016133e-07 
       3.22762648e-08       8.22829989e-09       4.65016132e-07 
      -3.34447499e-08       8.22830075e-09       4.65016117e-07 
      -3.22818392e-08       8.22830072e-09       4.65016118e-07 
       3.34391754e-08       8.22829986e-09       4.65016133e-07 
       3.22762648e-08       8.22829989e-09       4.65016132e-07 
      -3.34447499e-08       8.22830075e-09       4.65016117e-07 
      -3.22818392e-08       8.22830072e-09       4.65016118e-07 
       3.48239206e-08       9.05488662e-09       5.11730056e-07 
       3.36128525e-08       9.05488665e-09       5.11730054e-07 
      -3.48297369e-08       9.05488755e-09       5.11730038e-07 
      -3.36186687e-08       9.05488752e-09       5.11730039e-07 
       3.48239202e-08       9.05488660e-09       5.11730056e-07 
       3.36128525e-08       9.05488665e-09       5.11730054e-07 
      -3.48297371e-08       9.05488755e-09       5.11730038e-07 
      -3.36186690e-08       9.05488751e-09       5.11730039e-07 
       3.61744519e-08       9.91458247e-09       5.60315113e-07 
       3.49164178e-08       9.91458252e-09       5.60315112e-07 
      -3.61804258e-08       9.91458342e-09       5.60315094e-07 
      -3.49223916e-08       9.91458338e-09       5.60315096e-07 
       3.61744519e-08       9.91458247e-09       5.60315113e-07 
       3.49164178e-08       9.91458252e-09       5.60315112e-07 
      -3.61804258e-08       9.91458342e-09       5.60315094e-07 
      -3.49223916e-08       9.91458338e-09       5.60315096e-07 
       3.74928675e-08       1.08065925e-08       6.10726383e-07 
       3.61889838e-08       1.08065926e-08       6.10726382e-07 
      -3.74990008e-08       1.08065935e-08       6.10726363e-07 
      -3.61951171e-08       1.08065934e-08       6.10726364e-07 
       3.74928675e-08       1.08065925e-08       6.10726383e-07 
       3.61889838e-08       1.08065926e-08       6.10726382e-07 
      -3.74990008e-08       1.08065935e-08       6.10726363e-07 
      -3.61951171e-08       1.08065934e-08       6.10726364e-07 
       3.87791674e-08       1.17301392e-08       6.62919919e-07 
       3.74305511e-08       1.17301392e-08       6.62919917e-07 
      -3.87854611e-08       1.17301401e-08       6.62919897e-07 
      -3.74368452e-08       1.17301401e-08       6.62919899e-07 
       3.87791674e-08       1.17301392e-08       6.62919919e-07 
       3.74305511e-08       1.17301392e-08       6.62919917e-07 
      -3.87854611e-08       1.17301401e-08       6.62919897e-07 
      -3.74368452e-08       1.17301401e-08       6.62919899e-07 
       4.00333513e-08       1.26844448e-08       7.16851774e-07 
       3.86411192e-08       1.26844448e-08       7.16851772e-07 
      -4.00398084e-08       1.26844457e-08       7.16851751e-07 
      -3.86475763e-08       1.26844457e-08       7.16851753e-07 
       4.00333513e-08       1.26844448e-08       7.16851774e-07 
       3.86411192e-08       1.26844448e-08       7.16851772e-07 
      -4.00398084e-08       1.26844457e-08       7.16851751e-07 
      -3.86475763e-08       1.26844457e-08       7.16851753e-07 
       4.12554191e-08       1.36687317e-08       7.72478003e-07 
       3.98206881e-08       1.36687318e-08       7.72478001e-07 
      -4.12620413e-08       1.36687327e-08       7.72477978e-07 
      -3.98273103e-08       1.36687327e-08       7.72477980e-07 
       4.12554191e-08       1.36687317e-08       7.72478003e-07 
       3.98206881e-08       1.36687318e-08       7.72478001e-07 
      -4.12620413e-08       1.36687327e-08       7.72477978e-07 
      -3.98273103e-08       1.36687327e-08       7.72477980e-07 
       4.24453712e-08       1.46822224e-08       8.29754659e-07 
       4.09692578e-08       1.46822225e-08       8.29754657e-07 
      -4.24521605e-08       1.46822234e-08       8.29754633e-07 
      -4.09760470e-08       1.46822234e-08       8.29754634e-07 
       4.24453712e-08       1.46822224e-08       8.29754659e-07 
       4.09692578e-08       1.46822225e-08       8.29754657e-07 
      -4.24521605e-08       1.46822234e-08       8.29754633e-07 
      -4.09760470e-08       1.46822234e-08       8.29754634e-07 
       4.36032073e-08       1.57241393e-08       8.88637795e-07 
       4.20868287e-08       1.57241393e-08       8.88637793e-07 
      -4.36101657e-08       1.57241402e-08       8.88637768e-07 
      -4.20937867e-08       1.57241402e-08       8.88637770e-07 
       4.36032073e-08       1.57241393e-08       8.88637795e-07 
       4.20868287e-08       1.57241393e-08       8.88637793e-07 
      -4.36101657e-08       1.57241402e-08       8.88637768e-07 
      -4.20937867e-08       1.57241402e-08       8.88637770e-07 
       4.47289281e-08       1.67937046e-08       9.49083466e-07 
       4.31734009e-08       1.67937046e-08       9.49083464e-07 
      -4.47360562e-08       1.67937055e-08       9.49083437e-07 
      -4.31805285e-08       1.67937055e-08       9.49083439e-07 
       4.47289281e-08       1.67937046e-08       9.49083466e-07 
       4.31734009e-08       1.67937046e-08       9.49083464e-07 
      -4.47360562e-08       1.67937055e-08       9.49083437e-07 
      -4.31805285e-08       1.67937055e-08       9.49083439e-07 
       4.58225329e-08       1.78901408e-08       1.01104773e-06 
       4.42289734e-08       1.78901409e-08       1.01104772e-06 
      -4.58298333e-08       1.78901418e-08       1.01104770e-06 
      -4.42362738e-08       1.78901417e-08       1.01104770e-06 
       4.58225329e-08       1.78901408e-08       1.01104773e-06 
       4.42289734e-08       1.78901409e-08       1.01104772e-06 
      -4.58298333e-08       1.78901418e-08       1.01104770e-06 
      -4.42362738e-08       1.78901417e-08       1.01104770e-06 
       4.68840220e-08       1.90126703e-08       1.07448663e-06 
       4.52535471e-08       1.90126704e-08       1.07448662e-06 
      -4.68914960e-08       1.90126713e-08       1.07448660e-06 
      -4.52610216e-08       1.90126713e-08       1.07448660e-06 
       4.68840220e-08       1.90126704e-08       1.07448663e-06 
       4.52535471e-08       1.90126704e-08       1.07448662e-06 
      -4.68914960e-08       1.90126713e-08       1.07448660e-06 
      -4.52610212e-08       1.90126713e-08       1.07448660e-06 
       4.79155653e-08       2.01605328e-08       1.13935720e-06 
       4.62492178e-08       2.01605328e-08       1.13935720e-06 
      -4.79231570e-08       2.01605337e-08       1.13935717e-06 
      -4.62568090e-08       2.01605337e-08       1.13935717e-06 
       4.79155653e-08       2.01605328e-08       1.13935720e-06 
       4.62492178e-08       2.01605328e-08       1.13935720e-06 
      -4.79231570e-08       2.01605337e-08       1.13935717e-06 
      -4.62568090e-08       2.01605337e-08       1.13935717e-06 
       4.89192749e-08       2.13330370e-08       1.20562038e-06 
       4.72180219e-08       2.13330370e-08       1.20562038e-06 
      -4.89269860e-08       2.13330379e-08       1.20562035e-06 
      -4.72257331e-08       2.13330379e-08       1.20562035e-06 
       4.89192749e-08       2.13330370e-08       1.20562038e-06 
       4.72180219e-08       2.13330370e-08       1.20562038e-06 
      -4.89269860e-08       2.13330379e-08       1.20562035e-06 
      -4.72257331e-08       2.13330379e-08       1.20562035e-06 
       4.98951507e-08       2.25295090e-08       1.27323809e-06 
       4.81599605e-08       2.25295090e-08       1.27323808e-06 
      -4.99029826e-08       2.25295099e-08       1.27323805e-06 
      -4.81677924e-08       2.25295099e-08       1.27323805e-06 
       4.98951507e-08       2.25295090e-08       1.27323809e-06 
       4.81599605e-08       2.25295090e-08       1.27323808e-06 
      -4.99029826e-08       2.25295099e-08       1.27323805e-06 
      -4.81677924e-08       2.25295099e-08       1.27323805e-06 
       5.08431923e-08       2.37492749e-08       1.34217223e-06 
       4.90750329e-08       2.37492749e-08       1.34217222e-06 
      -5.08511477e-08       2.37492758e-08       1.34217219e-06 
      -4.90829883e-08       2.37492758e-08       1.34217219e-06 
       5.08431923e-08       2.37492749e-08       1.34217223e-06 
       4.90750329e-08       2.37492749e-08       1.34217222e-06 
      -5.08511477e-08       2.37492758e-08       1.34217219e-06 
      -4.90829883e-08       2.37492758e-08       1.34217219e-06 
       5.17633998e-08       2.49916607e-08       1.41238471e-06 
       4.99632389e-08       2.49916607e-08       1.41238471e-06 
      -5.17714804e-08       2.49916616e-08       1.41238468e-06 
      -4.99713195e-08       2.49916616e-08       1.41238468e-06 
       5.17633998e-08       2.49916607e-08       1.41238471e-06 
       4.99632389e-08       2.49916607e-08       1.41238471e-06 
      -5.17714804e-08       2.49916616e-08       1.41238468e-06 
      -4.99713195e-08       2.49916616e-08       1.41238468e-06 
       5.26557740e-08       2.62559925e-08       1.48383746e-06 
       5.08245797e-08       2.62559925e-08       1.48383746e-06 
      -5.26639816e-08       2.62559934e-08       1.48383742e-06 
      -5.08327873e-08       2.62559934e-08       1.48383743e-06 
       5.26557740e-08       2.62559925e-08       1.48383746e-06 
       5.08245797e-08       2.62559925e-08       1.48383746e-06 
      -5.26639816e-08       2.62559934e-08       1.48383742e-06 
      -5.08327873e-08       2.62559934e-08       1.48383743e-06 
       5.35203144e-08       2.75415964e-08       1.55649239e-06 
       5.16590539e-08       2.75415964e-08       1.55649239e-06 
      -5.35286504e-08       2.75415973e-08       1.55649235e-06 
      -5.16673904e-08       2.75415973e-08       1.55649235e-06 
       5.35203144e-08       2.75415964e-08       1.55649239e-06 
       5.16590539e-08       2.75415964e-08       1.55649239e-06 
      -5.35286504e-08       2.75415973e-08       1.55649235e-06 
      -5.16673904e-08       2.75415973e-08       1.55649235e-06 
       5.43570211e-08       2.88477985e-08       1.63031140e-06 
       5.24666630e-08       2.88477985e-08       1.63031140e-06 
      -5.43654868e-08       2.88477993e-08       1.63031136e-06 
      -5.24751287e-08       2.88477993e-08       1.63031136e-06 
       5.43570211e-08       2.88477985e-08       1.63031140e-06 
       5.24666630e-08       2.88477985e-08       1.63031140e-06 