# vtk DataFile Version 2.0
./output/onsasExample_nonLinearCantileverBlade_staitc3D_no_pitch numElements=10/onsasExample_nonLinearCantileverBlade_staitc3D_no_pitch numElements=10_0015.vtk
ASCII
DATASET UNSTRUCTURED_GRID

POINTS 800 float
       6.183259e-25      -7.180703e-02      -7.180703e-02 
       3.837412e-25       7.180703e-02      -7.180703e-02 
      -6.183259e-25       7.180703e-02       7.180703e-02 
      -3.837412e-25      -7.180703e-02       7.180703e-02 
       1.000000e-01      -7.180703e-02      -7.180703e-02 
       1.000000e-01       7.180703e-02      -7.180703e-02 
       1.000000e-01       7.180703e-02       7.180704e-02 
       1.000000e-01      -7.180703e-02       7.180704e-02 
       1.000000e-01      -7.180703e-02      -7.180703e-02 
       1.000000e-01       7.180703e-02      -7.180703e-02 
       1.000000e-01       7.180703e-02       7.180704e-02 
       1.000000e-01      -7.180703e-02       7.180704e-02 
       2.000000e-01      -7.180703e-02      -7.180702e-02 
       2.000000e-01       7.180703e-02      -7.180702e-02 
       2.000000e-01       7.180703e-02       7.180704e-02 
       2.000000e-01      -7.180703e-02       7.180704e-02 
       2.000000e-01      -7.180703e-02      -7.180702e-02 
       2.000000e-01       7.180703e-02      -7.180702e-02 
       2.000000e-01       7.180703e-02       7.180704e-02 
       2.000000e-01      -7.180703e-02       7.180704e-02 
       3.000000e-01      -7.180703e-02      -7.180701e-02 
       3.000000e-01       7.180703e-02      -7.180701e-02 
       3.000000e-01       7.180703e-02       7.180706e-02 
       3.000000e-01      -7.180703e-02       7.180706e-02 
       3.000000e-01      -7.180703e-02      -7.180701e-02 
       3.000000e-01       7.180703e-02      -7.180701e-02 
       3.000000e-01       7.180703e-02       7.180706e-02 
       3.000000e-01      -7.180703e-02       7.180706e-02 
       4.000000e-01      -7.180703e-02      -7.180699e-02 
       4.000000e-01       7.180703e-02      -7.180699e-02 
       4.000000e-01       7.180703e-02       7.180708e-02 
       4.000000e-01      -7.180703e-02       7.180708e-02 
       4.000000e-01      -7.180703e-02      -7.180699e-02 
       4.000000e-01       7.180703e-02      -7.180699e-02 
       4.000000e-01       7.180703e-02       7.180708e-02 
       4.000000e-01      -7.180703e-02       7.180708e-02 
       5.000000e-01      -7.180703e-02      -7.180697e-02 
       5.000000e-01       7.180703e-02      -7.180697e-02 
       5.000000e-01       7.180703e-02       7.180710e-02 
       5.000000e-01      -7.180703e-02       7.180710e-02 
       5.000000e-01      -7.180703e-02      -7.180697e-02 
       5.000000e-01       7.180703e-02      -7.180697e-02 
       5.000000e-01       7.180703e-02       7.180710e-02 
       5.000000e-01      -7.180703e-02       7.180710e-02 
       6.000000e-01      -7.180703e-02      -7.180694e-02 
       6.000000e-01       7.180704e-02      -7.180694e-02 
       6.000000e-01       7.180704e-02       7.180713e-02 
       6.000000e-01      -7.180703e-02       7.180713e-02 
       6.000000e-01      -7.180703e-02      -7.180694e-02 
       6.000000e-01       7.180704e-02      -7.180694e-02 
       6.000000e-01       7.180704e-02       7.180713e-02 
       6.000000e-01      -7.180703e-02       7.180713e-02 
       7.000000e-01      -7.180703e-02      -7.180690e-02 
       7.000000e-01       7.180704e-02      -7.180690e-02 
       7.000000e-01       7.180704e-02       7.180716e-02 
       7.000000e-01      -7.180703e-02       7.180716e-02 
       7.000000e-01      -7.180703e-02      -7.180690e-02 
       7.000000e-01       7.180704e-02      -7.180690e-02 
       7.000000e-01       7.180704e-02       7.180716e-02 
       7.000000e-01      -7.180703e-02       7.180716e-02 
       8.000000e-01      -7.180703e-02      -7.180686e-02 
       8.000000e-01       7.180704e-02      -7.180686e-02 
       8.000000e-01       7.180704e-02       7.180720e-02 
       8.000000e-01      -7.180703e-02       7.180720e-02 
       8.000000e-01      -7.180703e-02      -7.180686e-02 
       8.000000e-01       7.180704e-02      -7.180686e-02 
       8.000000e-01       7.180704e-02       7.180720e-02 
       8.000000e-01      -7.180703e-02       7.180720e-02 
       9.000000e-01      -7.180703e-02      -7.180682e-02 
       9.000000e-01       7.180704e-02      -7.180682e-02 
       9.000000e-01       7.180704e-02       7.180725e-02 
       9.000000e-01      -7.180703e-02       7.180725e-02 
       9.000000e-01      -7.180703e-02      -7.180682e-02 
       9.000000e-01       7.180704e-02      -7.180682e-02 
       9.000000e-01       7.180704e-02       7.180725e-02 
       9.000000e-01      -7.180703e-02       7.180725e-02 
       1.000000e+00      -7.180703e-02      -7.180677e-02 
       1.000000e+00       7.180704e-02      -7.180677e-02 
       1.000000e+00       7.180704e-02       7.180729e-02 
       1.000000e+00      -7.180703e-02       7.180729e-02 
       1.000000e+00      -7.180703e-02      -7.180677e-02 
       1.000000e+00       7.180704e-02      -7.180677e-02 
       1.000000e+00       7.180704e-02       7.180729e-02 
       1.000000e+00      -7.180703e-02       7.180729e-02 
       1.100000e+00      -7.180702e-02      -7.180672e-02 
       1.100000e+00       7.180704e-02      -7.180672e-02 
       1.100000e+00       7.180704e-02       7.180735e-02 
       1.100000e+00      -7.180702e-02       7.180735e-02 
       1.100000e+00      -7.180702e-02      -7.180672e-02 
       1.100000e+00       7.180704e-02      -7.180672e-02 
       1.100000e+00       7.180704e-02       7.180735e-02 
       1.100000e+00      -7.180702e-02       7.180735e-02 
       1.200000e+00      -7.180702e-02      -7.180666e-02 
       1.200000e+00       7.180704e-02      -7.180666e-02 
       1.200000e+00       7.180704e-02       7.180740e-02 
       1.200000e+00      -7.180702e-02       7.180740e-02 
       1.200000e+00      -7.180702e-02      -7.180666e-02 
       1.200000e+00       7.180704e-02      -7.180666e-02 
       1.200000e+00       7.180704e-02       7.180740e-02 
       1.200000e+00      -7.180702e-02       7.180740e-02 
       1.300000e+00      -7.180702e-02      -7.180660e-02 
       1.300000e+00       7.180704e-02      -7.180660e-02 
       1.300000e+00       7.180704e-02       7.180746e-02 
       1.300000e+00      -7.180702e-02       7.180746e-02 
       1.300000e+00      -7.180702e-02      -7.180660e-02 
       1.300000e+00       7.180704e-02      -7.180660e-02 
       1.300000e+00       7.180704e-02       7.180746e-02 
       1.300000e+00      -7.180702e-02       7.180746e-02 
       1.400000e+00      -7.180702e-02      -7.180654e-02 
       1.400000e+00       7.180705e-02      -7.180654e-02 
       1.400000e+00       7.180705e-02       7.180753e-02 
       1.400000e+00      -7.180702e-02       7.180753e-02 
       1.400000e+00      -7.180702e-02      -7.180654e-02 
       1.400000e+00       7.180705e-02      -7.180654e-02 
       1.400000e+00       7.180705e-02       7.180753e-02 
       1.400000e+00      -7.180702e-02       7.180753e-02 
       1.500000e+00      -7.180702e-02      -7.180647e-02 
       1.500000e+00       7.180705e-02      -7.180647e-02 
       1.500000e+00       7.180705e-02       7.180760e-02 
       1.500000e+00      -7.180702e-02       7.180760e-02 
       1.500000e+00      -7.180702e-02      -7.180647e-02 
       1.500000e+00       7.180705e-02      -7.180647e-02 
       1.500000e+00       7.180705e-02       7.180760e-02 
       1.500000e+00      -7.180702e-02       7.180760e-02 
       1.600000e+00      -7.180702e-02      -7.180639e-02 
       1.600000e+00       7.180705e-02      -7.180639e-02 
       1.600000e+00       7.180705e-02       7.180767e-02 
       1.600000e+00      -7.180702e-02       7.180767e-02 
       1.600000e+00      -7.180702e-02      -7.180639e-02 
       1.600000e+00       7.180705e-02      -7.180639e-02 
       1.600000e+00       7.180705e-02       7.180767e-02 
       1.600000e+00      -7.180702e-02       7.180767e-02 
       1.700000e+00      -7.180701e-02      -7.180632e-02 
       1.700000e+00       7.180705e-02      -7.180632e-02 
       1.700000e+00       7.180705e-02       7.180775e-02 
       1.700000e+00      -7.180701e-02       7.180775e-02 
       1.700000e+00      -7.180701e-02      -7.180632e-02 
       1.700000e+00       7.180705e-02      -7.180632e-02 
       1.700000e+00       7.180705e-02       7.180775e-02 
       1.700000e+00      -7.180701e-02       7.180775e-02 
       1.800000e+00      -7.180701e-02      -7.180624e-02 
       1.800000e+00       7.180705e-02      -7.180624e-02 
       1.800000e+00       7.180705e-02       7.180783e-02 
       1.800000e+00      -7.180701e-02       7.180783e-02 
       1.800000e+00      -7.180701e-02      -7.180624e-02 
       1.800000e+00       7.180705e-02      -7.180624e-02 
       1.800000e+00       7.180705e-02       7.180783e-02 
       1.800000e+00      -7.180701e-02       7.180783e-02 
       1.900000e+00      -7.180701e-02      -7.180615e-02 
       1.900000e+00       7.180706e-02      -7.180615e-02 
       1.900000e+00       7.180706e-02       7.180792e-02 
       1.900000e+00      -7.180701e-02       7.180792e-02 
       1.900000e+00      -7.180701e-02      -7.180615e-02 
       1.900000e+00       7.180706e-02      -7.180615e-02 
       1.900000e+00       7.180706e-02       7.180792e-02 
       1.900000e+00      -7.180701e-02       7.180792e-02 
       2.000000e+00      -7.180701e-02      -7.180606e-02 
       2.000000e+00       7.180706e-02      -7.180606e-02 
       2.000000e+00       7.180706e-02       7.180800e-02 
       2.000000e+00      -7.180701e-02       7.180800e-02 
       2.000000e+00      -7.180701e-02      -7.180606e-02 
       2.000000e+00       7.180706e-02      -7.180606e-02 
       2.000000e+00       7.180706e-02       7.180800e-02 
       2.000000e+00      -7.180701e-02       7.180800e-02 
       2.100000e+00      -7.180701e-02      -7.180597e-02 
[...]
POINT_DATA       800 
VECTORS Displacements float
       6.18325872e-25       1.38777878e-17       0.00000000e+00 
       3.83741160e-25       1.38777878e-17       0.00000000e+00 
      -6.18325872e-25      -1.38777878e-17       0.00000000e+00 
      -3.83741160e-25      -1.38777878e-17       0.00000000e+00 
       4.05034381e-09       7.22092108e-11       2.75755463e-09 
       3.84360013e-09       7.22092108e-11       2.75755421e-09 
      -4.05158790e-09       7.22096133e-11       2.75755400e-09 
      -3.84484422e-09       7.22095994e-11       2.75755442e-09 
       4.05034381e-09       7.22092108e-11       2.75755463e-09 
       3.84360013e-09       7.22092108e-11       2.75755421e-09 
      -4.05158790e-09       7.22096133e-11       2.75755400e-09 
      -3.84484422e-09       7.22095994e-11       2.75755442e-09 
       8.02284866e-09       2.86993207e-10       1.09597968e-08 
       7.61333382e-09       2.86993207e-10       1.09597959e-08 
      -8.02533964e-09       2.86993998e-10       1.09597951e-08 
      -7.61582480e-09       2.86993998e-10       1.09597959e-08 
       8.02284866e-09       2.86993207e-10       1.09597968e-08 
       7.61333382e-09       2.86993207e-10       1.09597959e-08 
      -8.02533964e-09       2.86993998e-10       1.09597951e-08 
      -7.61582480e-09       2.86993998e-10       1.09597959e-08 
       1.19175146e-08       6.41585896e-10       2.45010941e-08 
       1.13092010e-08       6.41585896e-10       2.45010929e-08 
      -1.19212553e-08       6.41587047e-10       2.45010910e-08 
      -1.13129417e-08       6.41587047e-10       2.45010923e-08 
       1.19175146e-08       6.41585896e-10       2.45010941e-08 
       1.13092010e-08       6.41585896e-10       2.45010929e-08 
      -1.19212553e-08       6.41587047e-10       2.45010910e-08 
      -1.13129417e-08       6.41587047e-10       2.45010923e-08 
       1.57343416e-08       1.13322118e-09       4.32758148e-08 
       1.49312018e-08       1.13322118e-09       4.32758131e-08 
      -1.57393347e-08       1.13322271e-09       4.32758098e-08 
      -1.49361949e-08       1.13322271e-09       4.32758115e-08 
       1.57343416e-08       1.13322118e-09       4.32758148e-08 
       1.49312018e-08       1.13322118e-09       4.32758131e-08 
      -1.57393347e-08       1.13322271e-09       4.32758098e-08 
      -1.49361949e-08       1.13322271e-09       4.32758115e-08 
       1.94733297e-08       1.75913299e-09       6.71783264e-08 
       1.84793363e-08       1.75913299e-09       6.71783243e-08 
      -1.94795780e-08       1.75913488e-09       6.71783192e-08 
      -1.84855846e-08       1.75913488e-09       6.71783214e-08 
       1.94733297e-08       1.75913299e-09       6.71783264e-08 
       1.84793363e-08       1.75913299e-09       6.71783243e-08 
      -1.94795780e-08       1.75913488e-09       6.71783192e-08 
      -1.84855846e-08       1.75913488e-09       6.71783214e-08 
       2.31344792e-08       2.51655524e-09       9.61029970e-08 
       2.19536045e-08       2.51655524e-09       9.61029944e-08 
      -2.31419849e-08       2.51655748e-09       9.61029873e-08 
      -2.19611102e-08       2.51655748e-09       9.61029899e-08 
       2.31344792e-08       2.51655524e-09       9.61029970e-08 
       2.19536045e-08       2.51655524e-09       9.61029944e-08 
      -2.31419849e-08       2.51655748e-09       9.61029873e-08 
      -2.19611102e-08       2.51655748e-09       9.61029899e-08 
       2.67177895e-08       3.40272183e-09       1.29944194e-07 
       2.53540061e-08       3.40272183e-09       1.29944191e-07 
      -2.67265557e-08       3.40272439e-09       1.29944182e-07 
      -2.53627723e-08       3.40272439e-09       1.29944185e-07 
       2.67177895e-08       3.40272183e-09       1.29944194e-07 
       2.53540061e-08       3.40272183e-09       1.29944191e-07 
      -2.67265557e-08       3.40272439e-09       1.29944182e-07 
      -2.53627723e-08       3.40272439e-09       1.29944185e-07 
       3.02232614e-08       4.41486667e-09       1.68596286e-07 
       2.86805417e-08       4.41486667e-09       1.68596283e-07 
      -3.02332902e-08       4.41486958e-09       1.68596271e-07 
      -2.86905705e-08       4.41486958e-09       1.68596274e-07 
       3.02232614e-08       4.41486667e-09       1.68596286e-07 
       2.86805417e-08       4.41486667e-09       1.68596283e-07 
      -3.02332902e-08       4.41486958e-09       1.68596271e-07 
      -2.86905705e-08       4.41486958e-09       1.68596274e-07 
       3.36508943e-08       5.55022368e-09       2.11953641e-07 
       3.19332107e-08       5.55022368e-09       2.11953637e-07 
      -3.36621885e-08       5.55022690e-09       2.11953622e-07 
      -3.19445049e-08       5.55022692e-09       2.11953626e-07 
       3.36508943e-08       5.55022368e-09       2.11953641e-07 
       3.19332107e-08       5.55022368e-09       2.11953637e-07 
      -3.36621885e-08       5.55022690e-09       2.11953622e-07 
      -3.19445049e-08       5.55022692e-09       2.11953626e-07 
       3.70006885e-08       6.80602677e-09       2.59910626e-07 
       3.51120140e-08       6.80602677e-09       2.59910621e-07 
      -3.70132502e-08       6.80603034e-09       2.59910603e-07 
      -3.51245756e-08       6.80603034e-09       2.59910608e-07 
       3.70006885e-08       6.80602678e-09       2.59910626e-07 
       3.51120137e-08       6.80602676e-09       2.59910621e-07 
      -3.70132502e-08       6.80603034e-09       2.59910603e-07 
      -3.51245755e-08       6.80603036e-09       2.59910608e-07 
       4.02769631e-08       8.17955850e-09       3.12363462e-07 
       3.82210605e-08       8.17955847e-09       3.12363457e-07 
      -4.02903502e-08       8.17956218e-09       3.12363436e-07 
      -3.82344474e-08       8.17956222e-09       3.12363441e-07 
       4.02769631e-08       8.17955850e-09       3.12363462e-07 
       3.82210605e-08       8.17955847e-09       3.12363457e-07 
      -4.02903502e-08       8.17956218e-09       3.12363436e-07 
      -3.82344474e-08       8.17956222e-09       3.12363441e-07 
       4.34835905e-08       9.66829530e-09       3.69215784e-07 
       4.12640144e-08       9.66829526e-09       3.69215779e-07 
      -4.34978087e-08       9.66829911e-09       3.69215754e-07 
      -4.12782326e-08       9.66829915e-09       3.69215759e-07 
       4.34835905e-08       9.66829530e-09       3.69215784e-07 
       4.12640144e-08       9.66829526e-09       3.69215779e-07 
      -4.34978087e-08       9.66829911e-09       3.69215754e-07 
      -4.12782326e-08       9.66829915e-09       3.69215759e-07 
       4.66205707e-08       1.12697622e-08       4.30373078e-07 
       4.42408754e-08       1.12697622e-08       4.30373072e-07 
      -4.66356265e-08       1.12697662e-08       4.30373043e-07 
      -4.42559311e-08       1.12697662e-08       4.30373049e-07 
       4.66205707e-08       1.12697622e-08       4.30373078e-07 
       4.42408754e-08       1.12697622e-08       4.30373072e-07 
      -4.66356265e-08       1.12697662e-08       4.30373043e-07 
      -4.42559311e-08       1.12697662e-08       4.30373049e-07 
       4.96879040e-08       1.29814844e-08       4.95740831e-07 
       4.71516437e-08       1.29814844e-08       4.95740825e-07 
      -4.97038029e-08       1.29814885e-08       4.95740793e-07 
      -4.71675428e-08       1.29814885e-08       4.95740798e-07 
       4.96879040e-08       1.29814844e-08       4.95740831e-07 
       4.71516437e-08       1.29814844e-08       4.95740825e-07 
      -4.97038029e-08       1.29814885e-08       4.95740793e-07 
      -4.71675428e-08       1.29814885e-08       4.95740798e-07 
       5.26855899e-08       1.48009869e-08       5.65224531e-07 
       4.99963191e-08       1.48009869e-08       5.65224525e-07 
      -5.27023385e-08       1.48009911e-08       5.65224488e-07 
      -5.00130679e-08       1.48009912e-08       5.65224494e-07 
       5.26855899e-08       1.48009869e-08       5.65224531e-07 
       4.99963191e-08       1.48009869e-08       5.65224525e-07 
      -5.27023385e-08       1.48009911e-08       5.65224488e-07 
      -5.00130679e-08       1.48009912e-08       5.65224494e-07 
       5.56136288e-08       1.67257948e-08       6.38729664e-07 
       5.27749020e-08       1.67257948e-08       6.38729657e-07 
      -5.56312330e-08       1.67257991e-08       6.38729617e-07 
      -5.27925059e-08       1.67257992e-08       6.38729623e-07 
       5.56136288e-08       1.67257948e-08       6.38729664e-07 
       5.27749020e-08       1.67257948e-08       6.38729657e-07 
      -5.56312330e-08       1.67257991e-08       6.38729617e-07 
      -5.27925059e-08       1.67257992e-08       6.38729623e-07 
       5.84720212e-08       1.87534332e-08       7.16161718e-07 
       5.54873925e-08       1.87534331e-08       7.16161711e-07 
      -5.84904856e-08       1.87534377e-08       7.16161666e-07 
      -5.55058568e-08       1.87534377e-08       7.16161672e-07 
       5.84720212e-08       1.87534332e-08       7.16161718e-07 
       5.54873925e-08       1.87534331e-08       7.16161711e-07 
      -5.84904856e-08       1.87534377e-08       7.16161666e-07 
      -5.55058568e-08       1.87534377e-08       7.16161672e-07 
       6.12607665e-08       2.08814271e-08       7.97426179e-07 
       5.81337902e-08       2.08814271e-08       7.97426172e-07 
      -6.12800972e-08       2.08814317e-08       7.97426122e-07 
      -5.81531208e-08       2.08814317e-08       7.97426129e-07 
       6.12607665e-08       2.08814271e-08       7.97426179e-07 
       5.81337902e-08       2.08814271e-08       7.97426172e-07 
      -6.12800972e-08       2.08814317e-08       7.97426122e-07 
      -5.81531208e-08       2.08814317e-08       7.97426129e-07 
       6.39798652e-08       2.31073017e-08       8.82428535e-07 
       6.07140958e-08       2.31073017e-08       8.82428527e-07 
      -6.40000670e-08       2.31073064e-08       8.82428473e-07 
      -6.07342976e-08       2.31073064e-08       8.82428481e-07 
       6.39798652e-08       2.31073017e-08       8.82428535e-07 
       6.07140958e-08       2.31073017e-08       8.82428527e-07 
      -6.40000670e-08       2.31073064e-08       8.82428473e-07 
      -6.07342976e-08       2.31073064e-08       8.82428481e-07 
       6.66293167e-08       2.54285820e-08       9.71074272e-07 
       6.32283084e-08       2.54285820e-08       9.71074264e-07 
      -6.66503954e-08       2.54285868e-08       9.71074206e-07 
      -6.32493873e-08       2.54285868e-08       9.71074214e-07 
       6.66293167e-08       2.54285820e-08       9.71074272e-07 
       6.32283084e-08       2.54285820e-08       9.71074264e-07 
      -6.66503956e-08       2.54285868e-08       9.71074206e-07 
      -6.32493873e-08       2.54285868e-08       9.71074214e-07 
       6.92133750e-08       2.78428417e-08       1.06327073e-06 
       6.56804731e-08       2.78428417e-08       1.06327072e-06 
      -6.92350230e-08       2.78428465e-08       1.06327066e-06 
      -6.57021211e-08       2.78428465e-08       1.06327067e-06 
       6.92133750e-08       2.78428417e-08       1.06327073e-06 
       6.56804731e-08       2.78428417e-08       1.06327072e-06 
      -6.92350230e-08       2.78428465e-08       1.06327066e-06 
      -6.57021211e-08       2.78428465e-08       1.06327067e-06 
       7.17359789e-08       3.03478484e-08       1.15893267e-06 
       6.80743195e-08       3.03478484e-08       1.15893266e-06 
      -7.17582029e-08       3.03478532e-08       1.15893259e-06 
      -6.80965440e-08       3.03478533e-08       1.15893260e-06 
       7.17359789e-08       3.03478484e-08       1.15893267e-06 
       6.80743195e-08       3.03478484e-08       1.15893266e-06 
      -7.17582029e-08       3.03478532e-08       1.15893259e-06 
      -6.80965440e-08       3.03478533e-08       1.15893260e-06 
       7.41971293e-08       3.29414185e-08       1.25797668e-06 
       7.04098486e-08       3.29414184e-08       1.25797667e-06 
      -7.42199360e-08       3.29414232e-08       1.25797660e-06 
      -7.04326553e-08       3.29414233e-08       1.25797661e-06 
       7.41971293e-08       3.29414185e-08       1.25797668e-06 
       7.04098486e-08       3.29414184e-08       1.25797667e-06 
      -7.42199360e-08       3.29414232e-08       1.25797660e-06 
      -7.04326553e-08       3.29414233e-08       1.25797661e-06 
       7.65968244e-08       3.56213680e-08       1.36031938e-06 
       7.26870586e-08       3.56213680e-08       1.36031937e-06 
      -7.66202222e-08       3.56213728e-08       1.36031930e-06 
      -7.27104563e-08       3.56213729e-08       1.36031931e-06 
       7.65968244e-08       3.56213680e-08       1.36031938e-06 
       7.26870586e-08       3.56213680e-08       1.36031937e-06 
      -7.66202222e-08       3.56213728e-08       1.36031930e-06 
      -7.27104563e-08       3.56213729e-08       1.36031931e-06 
       7.89350656e-08       3.83855134e-08       1.46587738e-06 
       7.49059512e-08       3.83855133e-08       1.46587737e-06 
      -7.89590606e-08       3.83855182e-08       1.46587729e-06 
      -7.49299462e-08       3.83855182e-08       1.46587730e-06 
       7.89350656e-08       3.83855134e-08       1.46587738e-06 
       7.49059512e-08       3.83855133e-08       1.46587737e-06 
      -7.89590606e-08       3.83855182e-08       1.46587729e-06 
      -7.49299462e-08       3.83855182e-08       1.46587730e-06 
       8.12118528e-08       4.12316708e-08       1.57456728e-06 
       7.70665256e-08       4.12316707e-08       1.57456727e-06 
      -8.12364522e-08       4.12316755e-08       1.57456718e-06 
      -7.70911250e-08       4.12316756e-08       1.57456719e-06 
       8.12118528e-08       4.12316708e-08       1.57456728e-06 
       7.70665256e-08       4.12316707e-08       1.57456727e-06 
      -8.12364522e-08       4.12316755e-08       1.57456718e-06 
      -7.70911250e-08       4.12316756e-08       1.57456719e-06 
       8.34271860e-08       4.41576565e-08       1.68630568e-06 
       7.91687822e-08       4.41576564e-08       1.68630567e-06 
      -8.34523965e-08       4.41576612e-08       1.68630558e-06 
      -7.91939923e-08       4.41576613e-08       1.68630559e-06 
       8.34271860e-08       4.41576565e-08       1.68630568e-06 
       7.91687822e-08       4.41576564e-08       1.68630567e-06 
      -8.34523965e-08       4.41576612e-08       1.68630558e-06 
      -7.91939923e-08       4.41576613e-08       1.68630559e-06 
       8.55810662e-08       4.71612867e-08       1.80100919e-06 
       8.12127219e-08       4.71612866e-08       1.80100918e-06 
      -8.56068922e-08       4.71612914e-08       1.80100908e-06 
      -8.12385483e-08       4.71612915e-08       1.80100909e-06 
       8.55810662e-08       4.71612867e-08       1.80100919e-06 
       8.12127219e-08       4.71612866e-08       1.80100918e-06 
      -8.56068922e-08       4.71612914e-08       1.80100908e-06 
      -8.12385483e-08       4.71612915e-08       1.80100909e-06 
       8.76734920e-08       5.02403777e-08       1.91859442e-06 
       8.31983433e-08       5.02403776e-08       1.91859441e-06 
      -8.76999415e-08       5.02403824e-08       1.91859431e-06 
      -8.32247928e-08       5.02403825e-08       1.91859432e-06 
       8.76734920e-08       5.02403777e-08       1.91859442e-06 
       8.31983433e-08       5.02403776e-08       1.91859441e-06 
      -8.76999415e-08       5.02403824e-08       1.91859431e-06 
      -8.32247928e-08       5.02403825e-08       1.91859432e-06 
       8.97044634e-08       5.33927457e-08       2.03897798e-06 
       8.51256470e-08       5.33927456e-08       2.03897797e-06 
      -8.97315426e-08       5.33927504e-08       2.03897786e-06 
      -8.51527258e-08       5.33927505e-08       2.03897787e-06 
       8.97044639e-08       5.33927457e-08       2.03897798e-06 
       8.51256474e-08       5.33927456e-08       2.03897797e-06 
      -8.97315426e-08       5.33927504e-08       2.03897786e-06 
      -8.51527262e-08       5.33927505e-08       2.03897787e-06 
       9.16781837e-08       5.66162555e-08       2.16207832e-06 
       8.69986265e-08       5.66162555e-08       2.16207831e-06 
      -9.17056875e-08       5.66162602e-08       2.16207820e-06 
      -8.70261303e-08       5.66162603e-08       2.16207821e-06 
       9.16781837e-08       5.66162555e-08       2.16207832e-06 
       8.69986265e-08       5.66162555e-08       2.16207831e-06 
      -9.17056875e-08       5.66162602e-08       2.16207820e-06 
      -8.70261303e-08       5.66162603e-08       2.16207821e-06 
       9.35986431e-08       5.99089661e-08       2.28782132e-06 
       8.88210629e-08       5.99089660e-08       2.28782131e-06 
      -9.36265789e-08       5.99089707e-08       2.28782119e-06 
      -8.88489988e-08       5.99089708e-08       2.28782120e-06 
       9.35986431e-08       5.99089661e-08       2.28782132e-06 
       8.88210629e-08       5.99089660e-08       2.28782131e-06 
      -9.36265789e-08       5.99089707e-08       2.28782119e-06 
      -8.88489988e-08       5.99089708e-08       2.28782120e-06 
       9.54658423e-08       6.32689847e-08       2.41613470e-06 
       9.05929571e-08       6.32689847e-08       2.41613469e-06 
      -9.54942161e-08       6.32689893e-08       2.41613457e-06 
      -9.06213309e-08       6.32689894e-08       2.41613458e-06 
       9.54658423e-08       6.32689847e-08       2.41613470e-06 
       9.05929571e-08       6.32689847e-08       2.41613469e-06 
      -9.54942161e-08       6.32689893e-08       2.41613457e-06 
      -9.06213309e-08       6.32689894e-08       2.41613458e-06 
       9.72797802e-08       6.66944189e-08       2.54694618e-06 
       9.23143082e-08       6.66944188e-08       2.54694617e-06 
      -9.73085998e-08       6.66944234e-08       2.54694605e-06 
      -9.23431278e-08       6.66944235e-08       2.54694606e-06 
       9.72797802e-08       6.66944189e-08       2.54694618e-06 
       9.23143082e-08       6.66944188e-08       2.54694617e-06 
      -9.73085998e-08       6.66944234e-08       2.54694605e-06 
      -9.23431278e-08       6.66944235e-08       2.54694606e-06 
       9.90404576e-08       7.01833760e-08       2.68018350e-06 
       9.39851166e-08       7.01833759e-08       2.68018349e-06 
      -9.90697298e-08       7.01833804e-08       2.68018336e-06 
      -9.40143887e-08       7.01833805e-08       2.68018337e-06 
       9.90404576e-08       7.01833760e-08       2.68018350e-06 
       9.39851166e-08       7.01833759e-08       2.68018349e-06 
      -9.90697298e-08       7.01833804e-08       2.68018336e-06 
      -9.40143887e-08       7.01833805e-08       2.68018337e-06 
       1.00747875e-07       7.37339635e-08       2.81577438e-06 
       9.56053827e-08       7.37339634e-08       2.81577437e-06 
      -1.00777605e-07       7.37339678e-08       2.81577423e-06 
      -9.56351132e-08       7.37339679e-08       2.81577424e-06 
       1.00747875e-07       7.37339635e-08       2.81577438e-06 
       9.56053827e-08       7.37339634e-08       2.81577437e-06 
      -1.00777605e-07       7.37339678e-08       2.81577423e-06 
      -9.56351132e-08       7.37339679e-08       2.81577424e-06 
       1.02402031e-07       7.73442887e-08       2.95364654e-06 
       9.71751066e-08       7.73442886e-08       2.95364653e-06 
      -1.02432227e-07       7.73442930e-08       2.95364639e-06 
      -9.72053020e-08       7.73442931e-08       2.95364640e-06 
       1.02402031e-07       7.73442887e-08       2.95364654e-06 
       9.71751066e-08       7.73442886e-08       2.95364653e-06 
      -1.02432227e-07       7.73442930e-08       2.95364639e-06 
      -9.72053020e-08       7.73442931e-08       2.95364640e-06 
       1.04002928e-07       8.10124591e-08       3.09372770e-06 
       9.86942892e-08       8.10124590e-08       3.09372769e-06 
      -1.04033593e-07       8.10124633e-08       3.09372755e-06 
      -9.87249535e-08       8.10124634e-08       3.09372756e-06 
       1.04002928e-07       8.10124591e-08       3.09372770e-06 
       9.86942892e-08       8.10124590e-08       3.09372769e-06 