# vtk DataFile Version 2.0
./output/onsasExample_nonLinearCantileverBlade_staitc3D_no_pitch numElements=10/onsasExample_nonLinearCantileverBlade_staitc3D_no_pitch numElements=10_0012.vtk
ASCII
DATASET UNSTRUCTURED_GRID

POINTS 800 float
       2.304589e-25      -7.180703e-02      -7.180703e-02 
       1.583487e-24       7.180703e-02      -7.180703e-02 
      -2.304589e-25       7.180703e-02       7.180703e-02 
      -1.583487e-24      -7.180703e-02       7.180703e-02 
       1.000000e-01      -7.180703e-02      -7.180703e-02 
       1.000000e-01       7.180703e-02      -7.180703e-02 
       1.000000e-01       7.180703e-02       7.180703e-02 
       1.000000e-01      -7.180703e-02       7.180703e-02 
       1.000000e-01      -7.180703e-02      -7.180703e-02 
       1.000000e-01       7.180703e-02      -7.180703e-02 
       1.000000e-01       7.180703e-02       7.180703e-02 
       1.000000e-01      -7.180703e-02       7.180703e-02 
       2.000000e-01      -7.180703e-02      -7.180703e-02 
       2.000000e-01       7.180703e-02      -7.180703e-02 
       2.000000e-01       7.180703e-02       7.180704e-02 
       2.000000e-01      -7.180703e-02       7.180704e-02 
       2.000000e-01      -7.180703e-02      -7.180703e-02 
       2.000000e-01       7.180703e-02      -7.180703e-02 
       2.000000e-01       7.180703e-02       7.180704e-02 
       2.000000e-01      -7.180703e-02       7.180704e-02 
       3.000000e-01      -7.180703e-02      -7.180702e-02 
       3.000000e-01       7.180703e-02      -7.180702e-02 
       3.000000e-01       7.180703e-02       7.180705e-02 
       3.000000e-01      -7.180703e-02       7.180705e-02 
       3.000000e-01      -7.180703e-02      -7.180702e-02 
       3.000000e-01       7.180703e-02      -7.180702e-02 
       3.000000e-01       7.180703e-02       7.180705e-02 
       3.000000e-01      -7.180703e-02       7.180705e-02 
       4.000000e-01      -7.180703e-02      -7.180701e-02 
       4.000000e-01       7.180703e-02      -7.180701e-02 
       4.000000e-01       7.180703e-02       7.180706e-02 
       4.000000e-01      -7.180703e-02       7.180706e-02 
       4.000000e-01      -7.180703e-02      -7.180701e-02 
       4.000000e-01       7.180703e-02      -7.180701e-02 
       4.000000e-01       7.180703e-02       7.180706e-02 
       4.000000e-01      -7.180703e-02       7.180706e-02 
       5.000000e-01      -7.180703e-02      -7.180699e-02 
       5.000000e-01       7.180703e-02      -7.180699e-02 
       5.000000e-01       7.180703e-02       7.180708e-02 
       5.000000e-01      -7.180703e-02       7.180708e-02 
       5.000000e-01      -7.180703e-02      -7.180699e-02 
       5.000000e-01       7.180703e-02      -7.180699e-02 
       5.000000e-01       7.180703e-02       7.180708e-02 
       5.000000e-01      -7.180703e-02       7.180708e-02 
       6.000000e-01      -7.180703e-02      -7.180697e-02 
       6.000000e-01       7.180703e-02      -7.180697e-02 
       6.000000e-01       7.180703e-02       7.180709e-02 
       6.000000e-01      -7.180703e-02       7.180709e-02 
       6.000000e-01      -7.180703e-02      -7.180697e-02 
       6.000000e-01       7.180703e-02      -7.180697e-02 
       6.000000e-01       7.180703e-02       7.180709e-02 
       6.000000e-01      -7.180703e-02       7.180709e-02 
       7.000000e-01      -7.180703e-02      -7.180695e-02 
       7.000000e-01       7.180703e-02      -7.180695e-02 
       7.000000e-01       7.180703e-02       7.180712e-02 
       7.000000e-01      -7.180703e-02       7.180712e-02 
       7.000000e-01      -7.180703e-02      -7.180695e-02 
       7.000000e-01       7.180703e-02      -7.180695e-02 
       7.000000e-01       7.180703e-02       7.180712e-02 
       7.000000e-01      -7.180703e-02       7.180712e-02 
       8.000000e-01      -7.180703e-02      -7.180693e-02 
       8.000000e-01       7.180704e-02      -7.180693e-02 
       8.000000e-01       7.180704e-02       7.180714e-02 
       8.000000e-01      -7.180703e-02       7.180714e-02 
       8.000000e-01      -7.180703e-02      -7.180693e-02 
       8.000000e-01       7.180704e-02      -7.180693e-02 
       8.000000e-01       7.180704e-02       7.180714e-02 
       8.000000e-01      -7.180703e-02       7.180714e-02 
       9.000000e-01      -7.180703e-02      -7.180690e-02 
       9.000000e-01       7.180704e-02      -7.180690e-02 
       9.000000e-01       7.180704e-02       7.180717e-02 
       9.000000e-01      -7.180703e-02       7.180717e-02 
       9.000000e-01      -7.180703e-02      -7.180690e-02 
       9.000000e-01       7.180704e-02      -7.180690e-02 
       9.000000e-01       7.180704e-02       7.180717e-02 
       9.000000e-01      -7.180703e-02       7.180717e-02 
       1.000000e+00      -7.180703e-02      -7.180687e-02 
       1.000000e+00       7.180704e-02      -7.180687e-02 
       1.000000e+00       7.180704e-02       7.180720e-02 
       1.000000e+00      -7.180703e-02       7.180720e-02 
       1.000000e+00      -7.180703e-02      -7.180687e-02 
       1.000000e+00       7.180704e-02      -7.180687e-02 
       1.000000e+00       7.180704e-02       7.180720e-02 
       1.000000e+00      -7.180703e-02       7.180720e-02 
       1.100000e+00      -7.180703e-02      -7.180683e-02 
       1.100000e+00       7.180704e-02      -7.180683e-02 
       1.100000e+00       7.180704e-02       7.180723e-02 
       1.100000e+00      -7.180703e-02       7.180723e-02 
       1.100000e+00      -7.180703e-02      -7.180683e-02 
       1.100000e+00       7.180704e-02      -7.180683e-02 
       1.100000e+00       7.180704e-02       7.180723e-02 
       1.100000e+00      -7.180703e-02       7.180723e-02 
       1.200000e+00      -7.180703e-02      -7.180680e-02 
       1.200000e+00       7.180704e-02      -7.180680e-02 
       1.200000e+00       7.180704e-02       7.180727e-02 
       1.200000e+00      -7.180703e-02       7.180727e-02 
       1.200000e+00      -7.180703e-02      -7.180680e-02 
       1.200000e+00       7.180704e-02      -7.180680e-02 
       1.200000e+00       7.180704e-02       7.180727e-02 
       1.200000e+00      -7.180703e-02       7.180727e-02 
       1.300000e+00      -7.180703e-02      -7.180676e-02 
       1.300000e+00       7.180704e-02      -7.180676e-02 
       1.300000e+00       7.180704e-02       7.180731e-02 
       1.300000e+00      -7.180703e-02       7.180731e-02 
       1.300000e+00      -7.180703e-02      -7.180676e-02 
       1.300000e+00       7.180704e-02      -7.180676e-02 
       1.300000e+00       7.180704e-02       7.180731e-02 
       1.300000e+00      -7.180703e-02       7.180731e-02 
       1.400000e+00      -7.180703e-02      -7.180672e-02 
       1.400000e+00       7.180704e-02      -7.180672e-02 
       1.400000e+00       7.180704e-02       7.180735e-02 
       1.400000e+00      -7.180703e-02       7.180735e-02 
       1.400000e+00      -7.180703e-02      -7.180672e-02 
       1.400000e+00       7.180704e-02      -7.180672e-02 
       1.400000e+00       7.180704e-02       7.180735e-02 
       1.400000e+00      -7.180703e-02       7.180735e-02 
       1.500000e+00      -7.180703e-02      -7.180667e-02 
       1.500000e+00       7.180704e-02      -7.180667e-02 
       1.500000e+00       7.180704e-02       7.180739e-02 
       1.500000e+00      -7.180703e-02       7.180739e-02 
       1.500000e+00      -7.180703e-02      -7.180667e-02 
       1.500000e+00       7.180704e-02      -7.180667e-02 
       1.500000e+00       7.180704e-02       7.180739e-02 
       1.500000e+00      -7.180703e-02       7.180739e-02 
       1.600000e+00      -7.180703e-02      -7.180663e-02 
       1.600000e+00       7.180704e-02      -7.180663e-02 
       1.600000e+00       7.180704e-02       7.180744e-02 
       1.600000e+00      -7.180703e-02       7.180744e-02 
       1.600000e+00      -7.180703e-02      -7.180663e-02 
       1.600000e+00       7.180704e-02      -7.180663e-02 
       1.600000e+00       7.180704e-02       7.180744e-02 
       1.600000e+00      -7.180703e-02       7.180744e-02 
       1.700000e+00      -7.180702e-02      -7.180658e-02 
       1.700000e+00       7.180704e-02      -7.180658e-02 
       1.700000e+00       7.180704e-02       7.180749e-02 
       1.700000e+00      -7.180702e-02       7.180749e-02 
       1.700000e+00      -7.180702e-02      -7.180658e-02 
       1.700000e+00       7.180704e-02      -7.180658e-02 
       1.700000e+00       7.180704e-02       7.180749e-02 
       1.700000e+00      -7.180702e-02       7.180749e-02 
       1.800000e+00      -7.180702e-02      -7.180652e-02 
       1.800000e+00       7.180704e-02      -7.180652e-02 
       1.800000e+00       7.180704e-02       7.180754e-02 
       1.800000e+00      -7.180702e-02       7.180754e-02 
       1.800000e+00      -7.180702e-02      -7.180652e-02 
       1.800000e+00       7.180704e-02      -7.180652e-02 
       1.800000e+00       7.180704e-02       7.180754e-02 
       1.800000e+00      -7.180702e-02       7.180754e-02 
       1.900000e+00      -7.180702e-02      -7.180647e-02 
       1.900000e+00       7.180704e-02      -7.180647e-02 
       1.900000e+00       7.180704e-02       7.180760e-02 
       1.900000e+00      -7.180702e-02       7.180760e-02 
       1.900000e+00      -7.180702e-02      -7.180647e-02 
       1.900000e+00       7.180704e-02      -7.180647e-02 
       1.900000e+00       7.180704e-02       7.180760e-02 
       1.900000e+00      -7.180702e-02       7.180760e-02 
       2.000000e+00      -7.180702e-02      -7.180641e-02 
       2.000000e+00       7.180705e-02      -7.180641e-02 
       2.000000e+00       7.180705e-02       7.180765e-02 
       2.000000e+00      -7.180702e-02       7.180765e-02 
       2.000000e+00      -7.180702e-02      -7.180641e-02 
       2.000000e+00       7.180705e-02      -7.180641e-02 
       2.000000e+00       7.180705e-02       7.180765e-02 
       2.000000e+00      -7.180702e-02       7.180765e-02 
       2.100000e+00      -7.180702e-02      -7.180635e-02 
[...]
POINT_DATA       800 
VECTORS Displacements float
       2.30458903e-25       1.38777878e-17       0.00000000e+00 
       1.58348656e-24       0.00000000e+00       0.00000000e+00 
      -2.30458903e-25      -1.38777878e-17       0.00000000e+00 
      -1.58348656e-24       0.00000000e+00       0.00000000e+00 
       2.56689300e-09       3.45933004e-11       1.75866131e-09 
       2.46784833e-09       3.45932866e-11       1.75866119e-09 
      -2.56739638e-09       3.45934115e-11       1.75866109e-09 
      -2.46835170e-09       3.45934253e-11       1.75866123e-09 
       2.56689300e-09       3.45933004e-11       1.75866131e-09 
       2.46784833e-09       3.45932866e-11       1.75866119e-09 
      -2.56739638e-09       3.45934115e-11       1.75866109e-09 
      -2.46835170e-09       3.45934253e-11       1.75866123e-09 
       5.08445888e-09       1.37489894e-10       6.98973307e-09 
       4.88827262e-09       1.37489881e-10       6.98973282e-09 
      -5.08546680e-09       1.37490117e-10       6.98973246e-09 
      -4.88928054e-09       1.37490130e-10       6.98973272e-09 
       5.08445888e-09       1.37489894e-10       6.98973307e-09 
       4.88827262e-09       1.37489881e-10       6.98973282e-09 
      -5.08546680e-09       1.37490117e-10       6.98973246e-09 
      -4.88928054e-09       1.37490130e-10       6.98973272e-09 
       7.55269774e-09       3.07364634e-10       1.56258472e-08 
       7.26127292e-09       3.07364620e-10       1.56258468e-08 
      -7.55421120e-09       3.07364981e-10       1.56258460e-08 
      -7.26278637e-09       3.07364995e-10       1.56258464e-08 
       7.55269774e-09       3.07364634e-10       1.56258472e-08 
       7.26127292e-09       3.07364620e-10       1.56258468e-08 
      -7.55421120e-09       3.07364981e-10       1.56258460e-08 
      -7.26278637e-09       3.07364995e-10       1.56258464e-08 
       9.97160932e-09       5.42892370e-10       2.75996356e-08 
       9.58684915e-09       5.42892356e-10       2.75996351e-08 
      -9.97362959e-09       5.42892814e-10       2.75996338e-08 
      -9.58886942e-09       5.42892828e-10       2.75996343e-08 
       9.97160932e-09       5.42892370e-10       2.75996356e-08 
       9.58684915e-09       5.42892356e-10       2.75996351e-08 
      -9.97362959e-09       5.42892814e-10       2.75996338e-08 
      -9.58886942e-09       5.42892828e-10       2.75996343e-08 
       1.23411937e-08       8.42747927e-10       4.28437303e-08 
       1.18650014e-08       8.42747913e-10       4.28437296e-08 
      -1.23437220e-08       8.42748496e-10       4.28437276e-08 
      -1.18675296e-08       8.42748510e-10       4.28437282e-08 
       1.23411937e-08       8.42747927e-10       4.28437303e-08 
       1.18650014e-08       8.42747913e-10       4.28437296e-08 
      -1.23437220e-08       8.42748496e-10       4.28437276e-08 
      -1.18675296e-08       8.42748510e-10       4.28437282e-08 
       1.46614514e-08       1.20560620e-09       6.12907631e-08 
       1.40957298e-08       1.20560618e-09       6.12907623e-08 
      -1.46644883e-08       1.20560686e-09       6.12907594e-08 
      -1.40987667e-08       1.20560688e-09       6.12907602e-08 
       1.46614514e-08       1.20560620e-09       6.12907631e-08 
       1.40957298e-08       1.20560618e-09       6.12907623e-08 
      -1.46644883e-08       1.20560686e-09       6.12907594e-08 
      -1.40987667e-08       1.20560688e-09       6.12907602e-08 
       1.69323816e-08       1.63014202e-09       8.28733659e-08 
       1.62790339e-08       1.63014201e-09       8.28733650e-08 
      -1.69359287e-08       1.63014277e-09       8.28733612e-08 
      -1.62825810e-08       1.63014280e-09       8.28733621e-08 
       1.69323816e-08       1.63014202e-09       8.28733659e-08 
       1.62790339e-08       1.63014201e-09       8.28733650e-08 
      -1.69359287e-08       1.63014277e-09       8.28733612e-08 
      -1.62825810e-08       1.63014280e-09       8.28733621e-08 
       1.91539848e-08       2.11503022e-09       1.07524171e-07 
       1.84149143e-08       2.11503021e-09       1.07524170e-07 
      -1.91580428e-08       2.11503111e-09       1.07524165e-07 
      -1.84189722e-08       2.11503112e-09       1.07524166e-07 
       1.91539848e-08       2.11503022e-09       1.07524171e-07 
       1.84149143e-08       2.11503021e-09       1.07524170e-07 
      -1.91580428e-08       2.11503111e-09       1.07524165e-07 
      -1.84189722e-08       2.11503112e-09       1.07524166e-07 
       2.13262611e-08       2.65894569e-09       1.35175810e-07 
       2.05033706e-08       2.65894567e-09       1.35175808e-07 
      -2.13308311e-08       2.65894667e-09       1.35175802e-07 
      -2.05079406e-08       2.65894669e-09       1.35175804e-07 
       2.13262611e-08       2.65894569e-09       1.35175810e-07 
       2.05033706e-08       2.65894567e-09       1.35175808e-07 
      -2.13308311e-08       2.65894667e-09       1.35175802e-07 
      -2.05079406e-08       2.65894669e-09       1.35175804e-07 
       2.34492104e-08       3.26056325e-09       1.65760914e-07 
       2.25444030e-08       3.26056322e-09       1.65760913e-07 
      -2.34542932e-08       3.26056432e-09       1.65760906e-07 
      -2.25494859e-08       3.26056435e-09       1.65760907e-07 
       2.34492104e-08       3.26056324e-09       1.65760914e-07 
       2.25444030e-08       3.26056326e-09       1.65760913e-07 
      -2.34542932e-08       3.26056435e-09       1.65760906e-07 
      -2.25494858e-08       3.26056432e-09       1.65760907e-07 
       2.55255186e-08       3.91858102e-09       1.99213299e-07 
       2.45405973e-08       3.91858104e-09       1.99213297e-07 
      -2.55309354e-08       3.91858218e-09       1.99213288e-07 
      -2.45460143e-08       3.91858214e-09       1.99213290e-07 
       2.55255186e-08       3.91858102e-09       1.99213299e-07 
       2.45405973e-08       3.91858104e-09       1.99213297e-07 
      -2.55309354e-08       3.91858218e-09       1.99213288e-07 
      -2.45460143e-08       3.91858214e-09       1.99213290e-07 
       2.75576912e-08       4.63179009e-09       2.35471504e-07 
       2.64943592e-08       4.63179012e-09       2.35471502e-07 
      -2.75634444e-08       4.63179130e-09       2.35471492e-07 
      -2.65001121e-08       4.63179127e-09       2.35471494e-07 
       2.75576912e-08       4.63179009e-09       2.35471504e-07 
       2.64943592e-08       4.63179012e-09       2.35471502e-07 
      -2.75634444e-08       4.63179130e-09       2.35471492e-07 
      -2.65001121e-08       4.63179127e-09       2.35471494e-07 
       2.95457283e-08       5.39900480e-09       2.74475254e-07 
       2.84056878e-08       5.39900483e-09       2.74475252e-07 
      -2.95518205e-08       5.39900606e-09       2.74475240e-07 
      -2.84117800e-08       5.39900602e-09       2.74475242e-07 
       2.95457283e-08       5.39900480e-09       2.74475254e-07 
       2.84056878e-08       5.39900483e-09       2.74475252e-07 
      -2.95518205e-08       5.39900606e-09       2.74475240e-07 
      -2.84117800e-08       5.39900602e-09       2.74475242e-07 
       3.14896300e-08       6.21903946e-09       3.16164271e-07 
       3.02745842e-08       6.21903949e-09       3.16164269e-07 
      -3.14960635e-08       6.21904077e-09       3.16164256e-07 
      -3.02810175e-08       6.21904074e-09       3.16164258e-07 
       3.14896300e-08       6.21903946e-09       3.16164271e-07 
       3.02745842e-08       6.21903949e-09       3.16164269e-07 
      -3.14960635e-08       6.21904077e-09       3.16164256e-07 
      -3.02810175e-08       6.21904074e-09       3.16164258e-07 
       3.33893961e-08       7.09070846e-09       3.60478279e-07 
       3.21010474e-08       7.09070849e-09       3.60478278e-07 
      -3.33961736e-08       7.09070980e-09       3.60478263e-07 
      -3.21078248e-08       7.09070976e-09       3.60478265e-07 
       3.33893961e-08       7.09070846e-09       3.60478279e-07 
       3.21010474e-08       7.09070849e-09       3.60478278e-07 
      -3.33961736e-08       7.09070980e-09       3.60478263e-07 
      -3.21078248e-08       7.09070976e-09       3.60478265e-07 
       3.52450269e-08       8.01282610e-09       4.07357002e-07 
       3.38850779e-08       8.01282612e-09       4.07357000e-07 
      -3.52521505e-08       8.01282747e-09       4.07356984e-07 
      -3.38922017e-08       8.01282744e-09       4.07356985e-07 
       3.52450269e-08       8.01282610e-09       4.07357002e-07 
       3.38850779e-08       8.01282612e-09       4.07357000e-07 
      -3.52521505e-08       8.01282747e-09       4.07356984e-07 
      -3.38922017e-08       8.01282744e-09       4.07356985e-07 
       3.70565223e-08       8.98420673e-09       4.56740162e-07 
       3.56266761e-08       8.98420677e-09       4.56740160e-07 
      -3.70639939e-08       8.98420814e-09       4.56740142e-07 
      -3.56341479e-08       8.98420811e-09       4.56740144e-07 
       3.70565223e-08       8.98420673e-09       4.56740162e-07 
       3.56266761e-08       8.98420677e-09       4.56740160e-07 
      -3.70639939e-08       8.98420814e-09       4.56740142e-07 
      -3.56341479e-08       8.98420811e-09       4.56740144e-07 
       3.88238821e-08       1.00036647e-08       5.08567484e-07 
       3.73258415e-08       1.00036647e-08       5.08567481e-07 
      -3.88317045e-08       1.00036661e-08       5.08567461e-07 
      -3.73336639e-08       1.00036661e-08       5.08567463e-07 
       3.88238821e-08       1.00036647e-08       5.08567484e-07 
       3.73258415e-08       1.00036647e-08       5.08567481e-07 
      -3.88317045e-08       1.00036661e-08       5.08567461e-07 
      -3.73336639e-08       1.00036661e-08       5.08567463e-07 
       4.05471066e-08       1.10700143e-08       5.62778689e-07 
       3.89825745e-08       1.10700144e-08       5.62778687e-07 
      -4.05552816e-08       1.10700158e-08       5.62778665e-07 
      -3.89907495e-08       1.10700158e-08       5.62778667e-07 
       4.05471066e-08       1.10700143e-08       5.62778689e-07 
       3.89825745e-08       1.10700144e-08       5.62778687e-07 
      -4.05552816e-08       1.10700158e-08       5.62778665e-07 
      -3.89907495e-08       1.10700158e-08       5.62778667e-07 
       4.22261954e-08       1.21820700e-08       6.19313502e-07 
       4.05968748e-08       1.21820700e-08       6.19313499e-07 
      -4.22347257e-08       1.21820715e-08       6.19313475e-07 
      -4.06054048e-08       1.21820715e-08       6.19313478e-07 
       4.22261954e-08       1.21820700e-08       6.19313502e-07 
       4.05968748e-08       1.21820700e-08       6.19313499e-07 
      -4.22347257e-08       1.21820715e-08       6.19313475e-07 
      -4.06054048e-08       1.21820715e-08       6.19313478e-07 
       4.38638086e-08       1.33386693e-08       6.78112827e-07 
       4.21713016e-08       1.33386693e-08       6.78112825e-07 
      -4.38725696e-08       1.33386708e-08       6.78112799e-07 
      -4.21800621e-08       1.33386708e-08       6.78112801e-07 
       4.38638086e-08       1.33386693e-08       6.78112827e-07 
       4.21713016e-08       1.33386693e-08       6.78112825e-07 
      -4.38725696e-08       1.33386708e-08       6.78112799e-07 
      -4.21800621e-08       1.33386708e-08       6.78112801e-07 
       4.54624782e-08       1.45387427e-08       7.39122298e-07 
       4.37082877e-08       1.45387428e-08       7.39122296e-07 
      -4.54714724e-08       1.45387442e-08       7.39122268e-07 
      -4.37172814e-08       1.45387442e-08       7.39122271e-07 
       4.54624782e-08       1.45387427e-08       7.39122298e-07 
       4.37082877e-08       1.45387428e-08       7.39122296e-07 
      -4.54714724e-08       1.45387442e-08       7.39122268e-07 
      -4.37172814e-08       1.45387442e-08       7.39122271e-07 
       4.70222048e-08       1.57812442e-08       8.02288729e-07 
       4.52078326e-08       1.57812442e-08       8.02288727e-07 
      -4.70314347e-08       1.57812457e-08       8.02288697e-07 
      -4.52170621e-08       1.57812457e-08       8.02288700e-07 
       4.70222048e-08       1.57812442e-08       8.02288729e-07 
       4.52078326e-08       1.57812442e-08       8.02288727e-07 
      -4.70314347e-08       1.57812457e-08       8.02288697e-07 
      -4.52170621e-08       1.57812457e-08       8.02288700e-07 
       4.85429879e-08       1.70651275e-08       8.67558935e-07 
       4.66699364e-08       1.70651275e-08       8.67558933e-07 
      -4.85524567e-08       1.70651290e-08       8.67558901e-07 
      -4.66794052e-08       1.70651290e-08       8.67558904e-07 
       4.85429879e-08       1.70651275e-08       8.67558935e-07 
       4.66699364e-08       1.70651275e-08       8.67558933e-07 
      -4.85524567e-08       1.70651290e-08       8.67558901e-07 
      -4.66794052e-08       1.70651290e-08       8.67558904e-07 
       5.00248269e-08       1.83893465e-08       9.34879731e-07 
       4.80945994e-08       1.83893465e-08       9.34879728e-07 
      -5.00345383e-08       1.83893480e-08       9.34879695e-07 
      -4.81043103e-08       1.83893480e-08       9.34879697e-07 
       5.00248269e-08       1.83893465e-08       9.34879731e-07 
       4.80945994e-08       1.83893465e-08       9.34879728e-07 
      -5.00345383e-08       1.83893480e-08       9.34879695e-07 
      -4.81043103e-08       1.83893480e-08       9.34879697e-07 
       5.14677230e-08       1.97528550e-08       1.00419793e-06 
       4.94818209e-08       1.97528550e-08       1.00419793e-06 
      -5.14776790e-08       1.97528565e-08       1.00419789e-06 
      -4.94917769e-08       1.97528565e-08       1.00419790e-06 
       5.14677230e-08       1.97528550e-08       1.00419793e-06 
       4.94818209e-08       1.97528550e-08       1.00419793e-06 
      -5.14776790e-08       1.97528565e-08       1.00419789e-06 
      -4.94917769e-08       1.97528565e-08       1.00419790e-06 
       5.28716755e-08       2.11546068e-08       1.07546035e-06 
       5.08316020e-08       2.11546068e-08       1.07546035e-06 
      -5.28818789e-08       2.11546083e-08       1.07546031e-06 
      -5.08418054e-08       2.11546083e-08       1.07546031e-06 
       5.28716755e-08       2.11546068e-08       1.07546035e-06 
       5.08316020e-08       2.11546068e-08       1.07546035e-06 
      -5.28818789e-08       2.11546083e-08       1.07546031e-06 
      -5.08418054e-08       2.11546083e-08       1.07546031e-06 
       5.42366849e-08       2.25935558e-08       1.14861380e-06 
       5.21439425e-08       2.25935558e-08       1.14861380e-06 
      -5.42471374e-08       2.25935573e-08       1.14861376e-06 
      -5.21543950e-08       2.25935573e-08       1.14861376e-06 
       5.42366849e-08       2.25935558e-08       1.14861380e-06 
       5.21439425e-08       2.25935558e-08       1.14861380e-06 
      -5.42471374e-08       2.25935573e-08       1.14861376e-06 
      -5.21543950e-08       2.25935573e-08       1.14861376e-06 
       5.55627513e-08       2.40686558e-08       1.22360510e-06 
       5.34188418e-08       2.40686558e-08       1.22360510e-06 
      -5.55734561e-08       2.40686573e-08       1.22360506e-06 
      -5.34295470e-08       2.40686573e-08       1.22360506e-06 
       5.55627513e-08       2.40686558e-08       1.22360510e-06 
       5.34188418e-08       2.40686558e-08       1.22360510e-06 
      -5.55734561e-08       2.40686573e-08       1.22360506e-06 
      -5.34295470e-08       2.40686573e-08       1.22360506e-06 
       5.68498737e-08       2.55788606e-08       1.30038106e-06 
       5.46562999e-08       2.55788606e-08       1.30038106e-06 
      -5.68608343e-08       2.55788621e-08       1.30038102e-06 
      -5.46672605e-08       2.55788621e-08       1.30038102e-06 
       5.68498737e-08       2.55788606e-08       1.30038106e-06 
       5.46563004e-08       2.55788606e-08       1.30038106e-06 
      -5.68608338e-08       2.55788621e-08       1.30038102e-06 
      -5.46672605e-08       2.55788621e-08       1.30038102e-06 
       5.81006918e-08       2.71231473e-08       1.37888969e-06 
       5.58588567e-08       2.71231473e-08       1.37888968e-06 
      -5.81118242e-08       2.71231488e-08       1.37888964e-06 
      -5.58699891e-08       2.71231488e-08       1.37888964e-06 
       5.81006918e-08       2.71231473e-08       1.37888969e-06 
       5.58588567e-08       2.71231473e-08       1.37888968e-06 
      -5.81118242e-08       2.71231488e-08       1.37888964e-06 
      -5.58699891e-08       2.71231488e-08       1.37888964e-06 
       5.93177587e-08       2.87005860e-08       1.45908369e-06 
       5.70289638e-08       2.87005860e-08       1.45908369e-06 
      -5.93290665e-08       2.87005874e-08       1.45908364e-06 
      -5.70402712e-08       2.87005874e-08       1.45908365e-06 
       5.93177587e-08       2.87005860e-08       1.45908369e-06 
       5.70289638e-08       2.87005860e-08       1.45908369e-06 
      -5.93290665e-08       2.87005874e-08       1.45908364e-06 
      -5.70402712e-08       2.87005874e-08       1.45908365e-06 
       6.05010753e-08       3.03102700e-08       1.54091699e-06 
       5.81666222e-08       3.03102700e-08       1.54091699e-06 
      -6.05125599e-08       3.03102714e-08       1.54091694e-06 
      -5.81781068e-08       3.03102714e-08       1.54091694e-06 
       6.05010753e-08       3.03102700e-08       1.54091699e-06 
       5.81666222e-08       3.03102700e-08       1.54091699e-06 
      -6.05125599e-08       3.03102714e-08       1.54091694e-06 
      -5.81781068e-08       3.03102714e-08       1.54091694e-06 
       6.16506397e-08       3.19512926e-08       1.62434348e-06 
       5.92718314e-08       3.19512926e-08       1.62434348e-06 
      -6.16623055e-08       3.19512940e-08       1.62434343e-06 
      -5.92834968e-08       3.19512940e-08       1.62434343e-06 
       6.16506397e-08       3.19512926e-08       1.62434348e-06 
       5.92718314e-08       3.19512926e-08       1.62434348e-06 
      -6.16623055e-08       3.19512940e-08       1.62434343e-06 
      -5.92834968e-08       3.19512940e-08       1.62434343e-06 
       6.27664534e-08       3.36227471e-08       1.70931708e-06 
       6.03445915e-08       3.36227471e-08       1.70931707e-06 
      -6.27783026e-08       3.36227484e-08       1.70931702e-06 
      -6.03564403e-08       3.36227484e-08       1.70931702e-06 
       6.27664534e-08       3.36227471e-08       1.70931708e-06 
       6.03445915e-08       3.36227471e-08       1.70931707e-06 
      -6.27783026e-08       3.36227484e-08       1.70931702e-06 
      -6.03564403e-08       3.36227484e-08       1.70931702e-06 
       6.38485158e-08       3.53237268e-08       1.79579168e-06 
       6.13849025e-08       3.53237268e-08       1.79579167e-06 
      -6.38605511e-08       3.53237282e-08       1.79579162e-06 
      -6.13969378e-08       3.53237282e-08       1.79579162e-06 
       6.38485158e-08       3.53237268e-08       1.79579168e-06 
       6.13849025e-08       3.53237268e-08       1.79579167e-06 
      -6.38605511e-08       3.53237282e-08       1.79579162e-06 
      -6.13969378e-08       3.53237282e-08       1.79579162e-06 
       6.48968275e-08       3.70533252e-08       1.88372119e-06 
       6.23927647e-08       3.70533252e-08       1.88372119e-06 
      -6.49090510e-08       3.70533265e-08       1.88372113e-06 
      -6.24049887e-08       3.70533265e-08       1.88372114e-06 
       6.48968275e-08       3.70533252e-08       1.88372119e-06 
       6.23927647e-08       3.70533252e-08       1.88372119e-06 
      -6.49090510e-08       3.70533265e-08       1.88372113e-06 
      -6.24049887e-08       3.70533265e-08       1.88372114e-06 
       6.59113883e-08       3.88106354e-08       1.97305953e-06 
       6.33681787e-08       3.88106354e-08       1.97305952e-06 
      -6.59238020e-08       3.88106367e-08       1.97305947e-06 
      -6.33805923e-08       3.88106367e-08       1.97305947e-06 
       6.59113883e-08       3.88106354e-08       1.97305953e-06 
       6.33681787e-08       3.88106354e-08       1.97305952e-06 