# vtk DataFile Version 2.0
./output/onsasExample_nonLinearCantileverBlade_staitc3D_no_pitch numElements=10/onsasExample_nonLinearCantileverBlade_staitc3D_no_pitch numElements=10_0022.vtk
ASCII
DATASET UNSTRUCTURED_GRID

POINTS 800 float
       2.334282e-24      -7.180703e-02      -7.180703e-02 
      -6.235336e-25       7.180703e-02      -7.180703e-02 
      -2.334282e-24       7.180703e-02       7.180703e-02 
       6.235336e-25      -7.180703e-02       7.180703e-02 
       1.000000e-01      -7.180703e-02      -7.180703e-02 
       1.000000e-01       7.180703e-02      -7.180703e-02 
       1.000000e-01       7.180703e-02       7.180703e-02 
       1.000000e-01      -7.180703e-02       7.180703e-02 
       1.000000e-01      -7.180703e-02      -7.180703e-02 
       1.000000e-01       7.180703e-02      -7.180703e-02 
       1.000000e-01       7.180703e-02       7.180703e-02 
       1.000000e-01      -7.180703e-02       7.180703e-02 
       2.000000e-01      -7.180703e-02      -7.180703e-02 
       2.000000e-01       7.180703e-02      -7.180703e-02 
       2.000000e-01       7.180703e-02       7.180704e-02 
       2.000000e-01      -7.180703e-02       7.180704e-02 
       2.000000e-01      -7.180703e-02      -7.180703e-02 
       2.000000e-01       7.180703e-02      -7.180703e-02 
       2.000000e-01       7.180703e-02       7.180704e-02 
       2.000000e-01      -7.180703e-02       7.180704e-02 
       3.000000e-01      -7.180703e-02      -7.180702e-02 
       3.000000e-01       7.180704e-02      -7.180702e-02 
       3.000000e-01       7.180704e-02       7.180705e-02 
       3.000000e-01      -7.180703e-02       7.180705e-02 
       3.000000e-01      -7.180703e-02      -7.180702e-02 
       3.000000e-01       7.180704e-02      -7.180702e-02 
       3.000000e-01       7.180704e-02       7.180705e-02 
       3.000000e-01      -7.180703e-02       7.180705e-02 
       4.000000e-01      -7.180703e-02      -7.180700e-02 
       4.000000e-01       7.180704e-02      -7.180700e-02 
       4.000000e-01       7.180704e-02       7.180706e-02 
       4.000000e-01      -7.180703e-02       7.180706e-02 
       4.000000e-01      -7.180703e-02      -7.180700e-02 
       4.000000e-01       7.180704e-02      -7.180700e-02 
       4.000000e-01       7.180704e-02       7.180706e-02 
       4.000000e-01      -7.180703e-02       7.180706e-02 
       5.000000e-01      -7.180703e-02      -7.180699e-02 
       5.000000e-01       7.180704e-02      -7.180699e-02 
       5.000000e-01       7.180704e-02       7.180708e-02 
       5.000000e-01      -7.180703e-02       7.180708e-02 
       5.000000e-01      -7.180703e-02      -7.180699e-02 
       5.000000e-01       7.180704e-02      -7.180699e-02 
       5.000000e-01       7.180704e-02       7.180708e-02 
       5.000000e-01      -7.180703e-02       7.180708e-02 
       6.000000e-01      -7.180702e-02      -7.180697e-02 
       6.000000e-01       7.180704e-02      -7.180697e-02 
       6.000000e-01       7.180704e-02       7.180710e-02 
       6.000000e-01      -7.180702e-02       7.180710e-02 
       6.000000e-01      -7.180702e-02      -7.180697e-02 
       6.000000e-01       7.180704e-02      -7.180697e-02 
       6.000000e-01       7.180704e-02       7.180710e-02 
       6.000000e-01      -7.180702e-02       7.180710e-02 
       7.000000e-01      -7.180702e-02      -7.180695e-02 
       7.000000e-01       7.180705e-02      -7.180695e-02 
       7.000000e-01       7.180705e-02       7.180712e-02 
       7.000000e-01      -7.180702e-02       7.180712e-02 
       7.000000e-01      -7.180702e-02      -7.180695e-02 
       7.000000e-01       7.180705e-02      -7.180695e-02 
       7.000000e-01       7.180705e-02       7.180712e-02 
       7.000000e-01      -7.180702e-02       7.180712e-02 
       8.000000e-01      -7.180701e-02      -7.180692e-02 
       8.000000e-01       7.180705e-02      -7.180692e-02 
       8.000000e-01       7.180705e-02       7.180715e-02 
       8.000000e-01      -7.180701e-02       7.180715e-02 
       8.000000e-01      -7.180701e-02      -7.180692e-02 
       8.000000e-01       7.180705e-02      -7.180692e-02 
       8.000000e-01       7.180705e-02       7.180715e-02 
       8.000000e-01      -7.180701e-02       7.180715e-02 
       9.000000e-01      -7.180701e-02      -7.180689e-02 
       9.000000e-01       7.180706e-02      -7.180689e-02 
       9.000000e-01       7.180706e-02       7.180717e-02 
       9.000000e-01      -7.180701e-02       7.180717e-02 
       9.000000e-01      -7.180701e-02      -7.180689e-02 
       9.000000e-01       7.180706e-02      -7.180689e-02 
       9.000000e-01       7.180706e-02       7.180717e-02 
       9.000000e-01      -7.180701e-02       7.180717e-02 
       1.000000e+00      -7.180700e-02      -7.180686e-02 
       1.000000e+00       7.180706e-02      -7.180686e-02 
       1.000000e+00       7.180706e-02       7.180721e-02 
       1.000000e+00      -7.180700e-02       7.180721e-02 
       1.000000e+00      -7.180700e-02      -7.180686e-02 
       1.000000e+00       7.180706e-02      -7.180686e-02 
       1.000000e+00       7.180706e-02       7.180721e-02 
       1.000000e+00      -7.180700e-02       7.180721e-02 
       1.100000e+00      -7.180700e-02      -7.180682e-02 
       1.100000e+00       7.180707e-02      -7.180682e-02 
       1.100000e+00       7.180707e-02       7.180724e-02 
       1.100000e+00      -7.180700e-02       7.180724e-02 
       1.100000e+00      -7.180700e-02      -7.180682e-02 
       1.100000e+00       7.180707e-02      -7.180682e-02 
       1.100000e+00       7.180707e-02       7.180724e-02 
       1.100000e+00      -7.180700e-02       7.180724e-02 
       1.200000e+00      -7.180699e-02      -7.180679e-02 
       1.200000e+00       7.180707e-02      -7.180679e-02 
       1.200000e+00       7.180707e-02       7.180728e-02 
       1.200000e+00      -7.180699e-02       7.180728e-02 
       1.200000e+00      -7.180699e-02      -7.180679e-02 
       1.200000e+00       7.180707e-02      -7.180679e-02 
       1.200000e+00       7.180707e-02       7.180728e-02 
       1.200000e+00      -7.180699e-02       7.180728e-02 
       1.300000e+00      -7.180699e-02      -7.180675e-02 
       1.300000e+00       7.180708e-02      -7.180675e-02 
       1.300000e+00       7.180708e-02       7.180732e-02 
       1.300000e+00      -7.180699e-02       7.180732e-02 
       1.300000e+00      -7.180699e-02      -7.180675e-02 
       1.300000e+00       7.180708e-02      -7.180675e-02 
       1.300000e+00       7.180708e-02       7.180732e-02 
       1.300000e+00      -7.180699e-02       7.180732e-02 
       1.400000e+00      -7.180698e-02      -7.180670e-02 
       1.400000e+00       7.180709e-02      -7.180670e-02 
       1.400000e+00       7.180709e-02       7.180736e-02 
       1.400000e+00      -7.180698e-02       7.180736e-02 
       1.400000e+00      -7.180698e-02      -7.180670e-02 
       1.400000e+00       7.180709e-02      -7.180670e-02 
       1.400000e+00       7.180709e-02       7.180736e-02 
       1.400000e+00      -7.180698e-02       7.180736e-02 
       1.500000e+00      -7.180697e-02      -7.180666e-02 
       1.500000e+00       7.180710e-02      -7.180666e-02 
       1.500000e+00       7.180710e-02       7.180741e-02 
       1.500000e+00      -7.180697e-02       7.180741e-02 
       1.500000e+00      -7.180697e-02      -7.180666e-02 
       1.500000e+00       7.180710e-02      -7.180666e-02 
       1.500000e+00       7.180710e-02       7.180741e-02 
       1.500000e+00      -7.180697e-02       7.180741e-02 
       1.600000e+00      -7.180696e-02      -7.180661e-02 
       1.600000e+00       7.180710e-02      -7.180661e-02 
       1.600000e+00       7.180710e-02       7.180746e-02 
       1.600000e+00      -7.180696e-02       7.180746e-02 
       1.600000e+00      -7.180696e-02      -7.180661e-02 
       1.600000e+00       7.180710e-02      -7.180661e-02 
       1.600000e+00       7.180710e-02       7.180746e-02 
       1.600000e+00      -7.180696e-02       7.180746e-02 
       1.700000e+00      -7.180695e-02      -7.180655e-02 
       1.700000e+00       7.180711e-02      -7.180655e-02 
       1.700000e+00       7.180711e-02       7.180751e-02 
       1.700000e+00      -7.180695e-02       7.180751e-02 
       1.700000e+00      -7.180695e-02      -7.180655e-02 
       1.700000e+00       7.180711e-02      -7.180655e-02 
       1.700000e+00       7.180711e-02       7.180751e-02 
       1.700000e+00      -7.180695e-02       7.180751e-02 
       1.800000e+00      -7.180694e-02      -7.180650e-02 
       1.800000e+00       7.180712e-02      -7.180650e-02 
       1.800000e+00       7.180712e-02       7.180757e-02 
       1.800000e+00      -7.180694e-02       7.180757e-02 
       1.800000e+00      -7.180694e-02      -7.180650e-02 
       1.800000e+00       7.180712e-02      -7.180650e-02 
       1.800000e+00       7.180712e-02       7.180757e-02 
       1.800000e+00      -7.180694e-02       7.180757e-02 
       1.900000e+00      -7.180694e-02      -7.180644e-02 
       1.900000e+00       7.180713e-02      -7.180644e-02 
       1.900000e+00       7.180713e-02       7.180762e-02 
       1.900000e+00      -7.180694e-02       7.180762e-02 
       1.900000e+00      -7.180694e-02      -7.180644e-02 
       1.900000e+00       7.180713e-02      -7.180644e-02 
       1.900000e+00       7.180713e-02       7.180762e-02 
       1.900000e+00      -7.180694e-02       7.180762e-02 
       2.000000e+00      -7.180693e-02      -7.180638e-02 
       2.000000e+00       7.180714e-02      -7.180638e-02 
       2.000000e+00       7.180714e-02       7.180768e-02 
       2.000000e+00      -7.180693e-02       7.180768e-02 
       2.000000e+00      -7.180693e-02      -7.180638e-02 
       2.000000e+00       7.180714e-02      -7.180638e-02 
       2.000000e+00       7.180714e-02       7.180768e-02 
       2.000000e+00      -7.180693e-02       7.180768e-02 
       2.100000e+00      -7.180692e-02      -7.180632e-02 
[...]
POINT_DATA       800 
VECTORS Displacements float
       2.33428166e-24       0.00000000e+00       0.00000000e+00 
      -6.23533553e-25       0.00000000e+00       0.00000000e+00 
      -2.33428166e-24       0.00000000e+00       0.00000000e+00 
       6.23533553e-25       0.00000000e+00       0.00000000e+00 
       3.07643534e-09       3.05245329e-10       1.84405370e-09 
       2.20248206e-09       3.05245329e-10       1.84405255e-09 
      -3.07724919e-09       3.05246453e-10       1.84405245e-09 
      -2.20329591e-09       3.05246453e-10       1.84405362e-09 
       3.07643534e-09       3.05245329e-10       1.84405370e-09 
       2.20248206e-09       3.05245329e-10       1.84405255e-09 
      -3.07724919e-09       3.05246453e-10       1.84405245e-09 
      -2.20329591e-09       3.05246453e-10       1.84405362e-09 
       6.09374984e-09       1.21318718e-09       7.32912091e-09 
       4.36263589e-09       1.21318715e-09       7.32911858e-09 
      -6.09537887e-09       1.21318937e-09       7.32911819e-09 
      -4.36426492e-09       1.21318940e-09       7.32912053e-09 
       6.09374984e-09       1.21318718e-09       7.32912091e-09 
       4.36263589e-09       1.21318715e-09       7.32911858e-09 
      -6.09537887e-09       1.21318937e-09       7.32911819e-09 
      -4.36426492e-09       1.21318940e-09       7.32912053e-09 
       9.05194358e-09       2.71213267e-09       1.63845625e-08 
       6.48046161e-09       2.71213263e-09       1.63845589e-08 
      -9.05438896e-09       2.71213592e-09       1.63845581e-08 
      -6.48290699e-09       2.71213597e-09       1.63845617e-08 
       9.05194358e-09       2.71213267e-09       1.63845625e-08 
       6.48046161e-09       2.71213263e-09       1.63845589e-08 
      -9.05438896e-09       2.71213592e-09       1.63845581e-08 
      -6.48290699e-09       2.71213597e-09       1.63845617e-08 
       1.19510164e-08       4.79038890e-09       2.89397393e-08 
       8.55595911e-09       4.79038886e-09       2.89397345e-08 
      -1.19542795e-08       4.79039318e-09       2.89397331e-08 
      -8.55922222e-09       4.79039322e-09       2.89397379e-08 
       1.19510164e-08       4.79038890e-09       2.89397393e-08 
       8.55595911e-09       4.79038886e-09       2.89397345e-08 
      -1.19542795e-08       4.79039318e-09       2.89397331e-08 
      -8.55922222e-09       4.79039322e-09       2.89397379e-08 
       1.47909686e-08       7.43626301e-09       4.49240122e-08 
       1.05891285e-08       7.43626294e-09       4.49240061e-08 
      -1.47950505e-08       7.43626828e-09       4.49240039e-08 
      -1.05932104e-08       7.43626835e-09       4.49240100e-08 
       1.47909686e-08       7.43626301e-09       4.49240122e-08 
       1.05891285e-08       7.43626294e-09       4.49240061e-08 
      -1.47950505e-08       7.43626828e-09       4.49240039e-08 
      -1.05932104e-08       7.43626835e-09       4.49240100e-08 
       1.75717999e-08       1.06380621e-08       6.42667421e-08 
       1.25799696e-08       1.06380620e-08       6.42667347e-08 
      -1.75767019e-08       1.06380683e-08       6.42667316e-08 
      -1.25848716e-08       1.06380684e-08       6.42667389e-08 
       1.75717999e-08       1.06380621e-08       6.42667421e-08 
       1.25799696e-08       1.06380620e-08       6.42667347e-08 
      -1.75767019e-08       1.06380683e-08       6.42667316e-08 
      -1.25848716e-08       1.06380684e-08       6.42667389e-08 
       2.02935104e-08       1.43840933e-08       8.68972898e-08 
       1.45284829e-08       1.43840931e-08       8.68972811e-08 
      -2.02992336e-08       1.43841004e-08       8.68972769e-08 
      -1.45342061e-08       1.43841006e-08       8.68972856e-08 
       2.02935104e-08       1.43840933e-08       8.68972898e-08 
       1.45284829e-08       1.43840931e-08       8.68972811e-08 
      -2.02992336e-08       1.43841004e-08       8.68972769e-08 
      -1.45342061e-08       1.43841006e-08       8.68972856e-08 
       2.29561002e-08       1.86626636e-08       1.12745016e-07 
       1.64346676e-08       1.86626635e-08       1.12745006e-07 
      -2.29626460e-08       1.86626717e-08       1.12745001e-07 
      -1.64412134e-08       1.86626719e-08       1.12745011e-07 
       2.29561002e-08       1.86626636e-08       1.12745016e-07 
       1.64346676e-08       1.86626635e-08       1.12745006e-07 
      -2.29626460e-08       1.86626717e-08       1.12745001e-07 
      -1.64412134e-08       1.86626719e-08       1.12745011e-07 
       2.55595693e-08       2.34620803e-08       1.41739282e-07 
       1.82985246e-08       2.34620801e-08       1.41739271e-07 
      -2.55669387e-08       2.34620893e-08       1.41739264e-07 
      -1.83058939e-08       2.34620895e-08       1.41739275e-07 
       2.55595693e-08       2.34620803e-08       1.41739282e-07 
       1.82985246e-08       2.34620801e-08       1.41739271e-07 
      -2.55669387e-08       2.34620893e-08       1.41739264e-07 
      -1.83058939e-08       2.34620895e-08       1.41739275e-07 
       2.81039176e-08       2.87706504e-08       1.73809449e-07 
       2.01200532e-08       2.87706502e-08       1.73809436e-07 
      -2.81121116e-08       2.87706603e-08       1.73809428e-07 
      -2.01282472e-08       2.87706605e-08       1.73809440e-07 
       2.81039176e-08       2.87706504e-08       1.73809449e-07 
       2.01200532e-08       2.87706502e-08       1.73809436e-07 
      -2.81121116e-08       2.87706603e-08       1.73809428e-07 
      -2.01282472e-08       2.87706605e-08       1.73809440e-07 
       3.05924024e-08       3.45768865e-08       2.08886115e-07 
       2.19016272e-08       3.45768862e-08       2.08886102e-07 
      -3.06011310e-08       3.45768967e-08       2.08886092e-07 
      -2.19103558e-08       3.45768969e-08       2.08886106e-07 
       3.05924024e-08       3.45768865e-08       2.08886115e-07 
       2.19016272e-08       3.45768862e-08       2.08886102e-07 
      -3.06011310e-08       3.45768967e-08       2.08886092e-07 
      -2.19103558e-08       3.45768969e-08       2.08886106e-07 
       3.30279890e-08       4.08701210e-08       2.46904840e-07 
       2.36453279e-08       4.08701207e-08       2.46904825e-07 
      -3.30372545e-08       4.08701316e-08       2.46904814e-07 
      -2.36545934e-08       4.08701319e-08       2.46904829e-07 
       3.30279890e-08       4.08701210e-08       2.46904840e-07 
       2.36453279e-08       4.08701207e-08       2.46904825e-07 
      -3.30372545e-08       4.08701316e-08       2.46904814e-07 
      -2.36545934e-08       4.08701319e-08       2.46904829e-07 
       3.54106768e-08       4.76398919e-08       2.87802419e-07 
       2.53511552e-08       4.76398916e-08       2.87802403e-07 
      -3.54204828e-08       4.76399028e-08       2.87802390e-07 
      -2.53609609e-08       4.76399032e-08       2.87802406e-07 
       3.54106768e-08       4.76398919e-08       2.87802419e-07 
       2.53511552e-08       4.76398916e-08       2.87802403e-07 
      -3.54204828e-08       4.76399028e-08       2.87802390e-07 
      -2.53609609e-08       4.76399032e-08       2.87802406e-07 
       3.77404668e-08       5.48757372e-08       3.31515649e-07 
       2.70191090e-08       5.48757368e-08       3.31515632e-07 
      -3.77508151e-08       5.48757484e-08       3.31515618e-07 
      -2.70294573e-08       5.48757488e-08       3.31515634e-07 
       3.77404668e-08       5.48757372e-08       3.31515649e-07 
       2.70191090e-08       5.48757368e-08       3.31515632e-07 
      -3.77508151e-08       5.48757484e-08       3.31515618e-07 
      -2.70294573e-08       5.48757488e-08       3.31515634e-07 
       4.00173579e-08       6.25671948e-08       3.77981326e-07 
       2.86491892e-08       6.25671944e-08       3.77981309e-07 
      -4.00282520e-08       6.25672064e-08       3.77981292e-07 
      -2.86600836e-08       6.25672068e-08       3.77981310e-07 
       4.00173579e-08       6.25671948e-08       3.77981326e-07 
       2.86491892e-08       6.25671944e-08       3.77981309e-07 
      -4.00282520e-08       6.25672064e-08       3.77981292e-07 
      -2.86600836e-08       6.25672068e-08       3.77981310e-07 
       4.22413509e-08       7.07038027e-08       4.27136248e-07 
       3.02413963e-08       7.07038022e-08       4.27136229e-07 
      -4.22527933e-08       7.07038145e-08       4.27136211e-07 
      -3.02528389e-08       7.07038150e-08       4.27136229e-07 
       4.22413509e-08       7.07038027e-08       4.27136248e-07 
       3.02413963e-08       7.07038022e-08       4.27136229e-07 
      -4.22527933e-08       7.07038145e-08       4.27136211e-07 
      -3.02528389e-08       7.07038150e-08       4.27136229e-07 
       4.44124455e-08       7.92750988e-08       4.78917210e-07 
       3.17957303e-08       7.92750982e-08       4.78917191e-07 
      -4.44244386e-08       7.92751109e-08       4.78917170e-07 
      -3.18077233e-08       7.92751114e-08       4.78917190e-07 
       4.44124455e-08       7.92750988e-08       4.78917210e-07 
       3.17957303e-08       7.92750982e-08       4.78917191e-07 
      -4.44244386e-08       7.92751109e-08       4.78917170e-07 
      -3.18077233e-08       7.92751114e-08       4.78917190e-07 
       4.65306420e-08       8.82706210e-08       5.33261009e-07 
       3.33121906e-08       8.82706204e-08       5.33260989e-07 
      -4.65431886e-08       8.82706334e-08       5.33260967e-07 
      -3.33247370e-08       8.82706340e-08       5.33260987e-07 
       4.65306420e-08       8.82706210e-08       5.33261009e-07 
       3.33121906e-08       8.82706204e-08       5.33260989e-07 
      -4.65431886e-08       8.82706334e-08       5.33260967e-07 
      -3.33247370e-08       8.82706340e-08       5.33260987e-07 
       4.85959402e-08       9.76799073e-08       5.90104443e-07 
       3.47907780e-08       9.76799066e-08       5.90104421e-07 
      -4.86090421e-08       9.76799199e-08       5.90104397e-07 
      -3.48038800e-08       9.76799206e-08       5.90104419e-07 
       4.85959402e-08       9.76799073e-08       5.90104443e-07 
       3.47907780e-08       9.76799066e-08       5.90104421e-07 
      -4.86090421e-08       9.76799199e-08       5.90104397e-07 
      -3.48038800e-08       9.76799206e-08       5.90104419e-07 
       5.06083402e-08       1.07492496e-07       6.49384306e-07 
       3.62314920e-08       1.07492495e-07       6.49384284e-07 
      -5.06220004e-08       1.07492508e-07       6.49384258e-07 
      -3.62451522e-08       1.07492509e-07       6.49384280e-07 
       5.06083402e-08       1.07492496e-07       6.49384306e-07 
       3.62314920e-08       1.07492495e-07       6.49384284e-07 
      -5.06220004e-08       1.07492508e-07       6.49384258e-07 
      -3.62451522e-08       1.07492509e-07       6.49384280e-07 
       5.25710560e-08       1.17698129e-07       7.11038636e-07 
       3.76366631e-08       1.17698128e-07       7.11038613e-07 
      -5.25850719e-08       1.17698142e-07       7.11038585e-07 
      -3.76506790e-08       1.17698143e-07       7.11038608e-07 
       5.25710560e-08       1.17698129e-07       7.11038636e-07 
       3.76366631e-08       1.17698128e-07       7.11038613e-07 
      -5.25850719e-08       1.17698142e-07       7.11038585e-07 
      -3.76506790e-08       1.17698143e-07       7.11038608e-07 
       5.44870962e-08       1.28287371e-07       7.75010425e-07 
       3.90084161e-08       1.28287371e-07       7.75010401e-07 
      -5.45014713e-08       1.28287384e-07       7.75010371e-07 
      -3.90227908e-08       1.28287385e-07       7.75010395e-07 
       5.44870962e-08       1.28287371e-07       7.75010425e-07 
       3.90084161e-08       1.28287371e-07       7.75010401e-07 
      -5.45014713e-08       1.28287384e-07       7.75010371e-07 
      -3.90227908e-08       1.28287385e-07       7.75010395e-07 
       5.63564617e-08       1.39250991e-07       8.41243905e-07 
       4.03467508e-08       1.39250990e-07       8.41243881e-07 
      -5.63711979e-08       1.39251004e-07       8.41243848e-07 
      -4.03614875e-08       1.39251005e-07       8.41243873e-07 
       5.63564617e-08       1.39250991e-07       8.41243905e-07 
       4.03467508e-08       1.39250990e-07       8.41243881e-07 
      -5.63711979e-08       1.39251004e-07       8.41243848e-07 
      -4.03614875e-08       1.39251005e-07       8.41243873e-07 
       5.81791508e-08       1.50579757e-07       9.09683309e-07 
       4.16516674e-08       1.50579756e-07       9.09683284e-07 
      -5.81942530e-08       1.50579770e-07       9.09683250e-07 
      -4.16667700e-08       1.50579771e-07       9.09683275e-07 
       5.81791508e-08       1.50579757e-07       9.09683309e-07 
       4.16516674e-08       1.50579756e-07       9.09683284e-07 
      -5.81942530e-08       1.50579770e-07       9.09683250e-07 
      -4.16667700e-08       1.50579771e-07       9.09683275e-07 
       5.99551644e-08       1.62264439e-07       9.80272869e-07 
       4.29231659e-08       1.62264438e-07       9.80272844e-07 
      -5.99706356e-08       1.62264451e-07       9.80272807e-07 
      -4.29386371e-08       1.62264452e-07       9.80272833e-07 
       5.99551644e-08       1.62264439e-07       9.80272869e-07 
       4.29231659e-08       1.62264438e-07       9.80272844e-07 
      -5.99706356e-08       1.62264451e-07       9.80272807e-07 
      -4.29386371e-08       1.62264452e-07       9.80272833e-07 
       6.16845033e-08       1.74295804e-07       1.05295682e-06 
       4.41612467e-08       1.74295802e-07       1.05295679e-06 
      -6.17003462e-08       1.74295816e-07       1.05295675e-06 
      -4.41770895e-08       1.74295817e-07       1.05295678e-06 
       6.16845033e-08       1.74295804e-07       1.05295682e-06 
       4.41612467e-08       1.74295802e-07       1.05295679e-06 
      -6.17003462e-08       1.74295816e-07       1.05295675e-06 
      -4.41770895e-08       1.74295817e-07       1.05295678e-06 
       6.33671666e-08       1.86664621e-07       1.12767939e-06 
       4.53659093e-08       1.86664620e-07       1.12767936e-06 
      -6.33833843e-08       1.86664634e-07       1.12767932e-06 
      -4.53821269e-08       1.86664635e-07       1.12767935e-06 
       6.33671666e-08       1.86664621e-07       1.12767939e-06 
       4.53659093e-08       1.86664620e-07       1.12767936e-06 
      -6.33833843e-08       1.86664634e-07       1.12767932e-06 
      -4.53821269e-08       1.86664635e-07       1.12767935e-06 
       6.50031549e-08       1.99361660e-07       1.20438481e-06 
       4.65371541e-08       1.99361659e-07       1.20438478e-06 
      -6.50197496e-08       1.99361673e-07       1.20438474e-06 
      -4.65537489e-08       1.99361674e-07       1.20438476e-06 
       6.50031549e-08       1.99361660e-07       1.20438481e-06 
       4.65371541e-08       1.99361659e-07       1.20438478e-06 
      -6.50197496e-08       1.99361673e-07       1.20438474e-06 
      -4.65537489e-08       1.99361674e-07       1.20438476e-06 
       6.65924680e-08       2.12377689e-07       1.28301731e-06 
       4.76749809e-08       2.12377688e-07       1.28301729e-06 
      -6.66094429e-08       2.12377702e-07       1.28301724e-06 
      -4.76919562e-08       2.12377703e-07       1.28301727e-06 
       6.65924680e-08       2.12377689e-07       1.28301731e-06 
       4.76749809e-08       2.12377688e-07       1.28301729e-06 
      -6.66094429e-08       2.12377702e-07       1.28301724e-06 
      -4.76919562e-08       2.12377703e-07       1.28301727e-06 
       6.81351051e-08       2.25703477e-07       1.36352114e-06 
       4.87793894e-08       2.25703476e-07       1.36352111e-06 
      -6.81524641e-08       2.25703490e-07       1.36352106e-06 
      -4.87967484e-08       2.25703491e-07       1.36352109e-06 
       6.81351051e-08       2.25703477e-07       1.36352114e-06 
       4.87793899e-08       2.25703476e-07       1.36352111e-06 
      -6.81524637e-08       2.25703490e-07       1.36352106e-06 
      -4.87967484e-08       2.25703491e-07       1.36352109e-06 
       6.96342481e-08       2.39329998e-07       1.44584175e-06 
       4.98526771e-08       2.39329997e-07       1.44584172e-06 
      -6.96518550e-08       2.39330010e-07       1.44584167e-06 
      -4.98702843e-08       2.39330012e-07       1.44584170e-06 
       6.96342481e-08       2.39329998e-07       1.44584175e-06 
       4.98526771e-08       2.39329997e-07       1.44584172e-06 
      -6.96518550e-08       2.39330010e-07       1.44584167e-06 
      -4.98702843e-08       2.39330012e-07       1.44584170e-06 
       7.10929386e-08       2.53249047e-07       1.52992958e-06 
       5.08970022e-08       2.53249045e-07       1.52992955e-06 
      -7.11107973e-08       2.53249059e-07       1.52992950e-06 
      -5.09148608e-08       2.53249060e-07       1.52992953e-06 
       7.10929386e-08       2.53249047e-07       1.52992958e-06 
       5.08970022e-08       2.53249045e-07       1.52992955e-06 
      -7.11107973e-08       2.53249059e-07       1.52992950e-06 
      -5.09148608e-08       2.53249060e-07       1.52992953e-06 
       7.25111771e-08       2.67452622e-07       1.61573630e-06 
       5.19123651e-08       2.67452620e-07       1.61573627e-06 
      -7.25292901e-08       2.67452633e-07       1.61573621e-06 
      -5.19304777e-08       2.67452635e-07       1.61573624e-06 
       7.25111771e-08       2.67452622e-07       1.61573630e-06 
       5.19123651e-08       2.67452620e-07       1.61573627e-06 
      -7.25292901e-08       2.67452633e-07       1.61573621e-06 
      -5.19304777e-08       2.67452635e-07       1.61573624e-06 
       7.38889629e-08       2.81932724e-07       1.70321357e-06 
       5.28987649e-08       2.81932722e-07       1.70321353e-06 
      -7.39073340e-08       2.81932735e-07       1.70321348e-06 
      -5.29171360e-08       2.81932736e-07       1.70321351e-06 
       7.38889629e-08       2.81932724e-07       1.70321357e-06 
       5.28987649e-08       2.81932722e-07       1.70321353e-06 
      -7.39073340e-08       2.81932735e-07       1.70321348e-06 
      -5.29171360e-08       2.81932736e-07       1.70321351e-06 
       7.52262972e-08       2.96681351e-07       1.79231306e-06 
       5.38562022e-08       2.96681350e-07       1.79231302e-06 
      -7.52449290e-08       2.96681363e-07       1.79231297e-06 
      -5.38748344e-08       2.96681364e-07       1.79231300e-06 
       7.52262972e-08       2.96681351e-07       1.79231306e-06 
       5.38562022e-08       2.96681350e-07       1.79231302e-06 
      -7.52449290e-08       2.96681363e-07       1.79231297e-06 
      -5.38748344e-08       2.96681364e-07       1.79231300e-06 
       7.65231789e-08       3.11690505e-07       1.88298644e-06 
       5.47846777e-08       3.11690503e-07       1.88298640e-06 
      -7.65420745e-08       3.11690516e-07       1.88298634e-06 
      -5.48035732e-08       3.11690518e-07       1.88298638e-06 
       7.65231789e-08       3.11690505e-07       1.88298644e-06 
       5.47846777e-08       3.11690503e-07       1.88298640e-06 
      -7.65420745e-08       3.11690516e-07       1.88298634e-06 
      -5.48035732e-08       3.11690518e-07       1.88298638e-06 
       7.77796085e-08       3.26952184e-07       1.97518537e-06 
       5.56841901e-08       3.26952182e-07       1.97518534e-06 
      -7.77987710e-08       3.26952195e-07       1.97518528e-06 
      -5.57033526e-08       3.26952196e-07       1.97518531e-06 
       7.77796085e-08       3.26952184e-07       1.97518537e-06 
       5.56841901e-08       3.26952182e-07       1.97518534e-06 
      -7.77987710e-08       3.26952195e-07       1.97518528e-06 
      -5.57033526e-08       3.26952196e-07       1.97518531e-06 
       7.89955870e-08       3.42458388e-07       2.06886154e-06 
       5.65547409e-08       3.42458386e-07       2.06886150e-06 
      -7.90150176e-08       3.42458398e-07       2.06886144e-06 
      -5.65741720e-08       3.42458400e-07       2.06886147e-06 
       7.89955870e-08       3.42458388e-07       2.06886154e-06 
       5.65547409e-08       3.42458386e-07       2.06886150e-06 