# vtk DataFile Version 2.0
./output/onsasExample_nonLinearCantileverBlade_staitc3D_no_pitch numElements=10/onsasExample_nonLinearCantileverBlade_staitc3D_no_pitch numElements=10_0003.vtk
ASCII
DATASET UNSTRUCTURED_GRID

POINTS 800 float
      -9.839727e-27      -7.180703e-02      -7.180703e-02 
       4.185906e-26       7.180703e-02      -7.180703e-02 
       9.839727e-27       7.180703e-02       7.180703e-02 
      -4.185906e-26      -7.180703e-02       7.180703e-02 
       1.000000e-01      -7.180703e-02      -7.180703e-02 
       1.000000e-01       7.180703e-02      -7.180703e-02 
       1.000000e-01       7.180703e-02       7.180703e-02 
       1.000000e-01      -7.180703e-02       7.180703e-02 
       1.000000e-01      -7.180703e-02      -7.180703e-02 
       1.000000e-01       7.180703e-02      -7.180703e-02 
       1.000000e-01       7.180703e-02       7.180703e-02 
       1.000000e-01      -7.180703e-02       7.180703e-02 
       2.000000e-01      -7.180703e-02      -7.180703e-02 
       2.000000e-01       7.180703e-02      -7.180703e-02 
       2.000000e-01       7.180703e-02       7.180703e-02 
       2.000000e-01      -7.180703e-02       7.180703e-02 
       2.000000e-01      -7.180703e-02      -7.180703e-02 
       2.000000e-01       7.180703e-02      -7.180703e-02 
       2.000000e-01       7.180703e-02       7.180703e-02 
       2.000000e-01      -7.180703e-02       7.180703e-02 
       3.000000e-01      -7.180703e-02      -7.180703e-02 
       3.000000e-01       7.180703e-02      -7.180703e-02 
       3.000000e-01       7.180703e-02       7.180703e-02 
       3.000000e-01      -7.180703e-02       7.180703e-02 
       3.000000e-01      -7.180703e-02      -7.180703e-02 
       3.000000e-01       7.180703e-02      -7.180703e-02 
       3.000000e-01       7.180703e-02       7.180703e-02 
       3.000000e-01      -7.180703e-02       7.180703e-02 
       4.000000e-01      -7.180703e-02      -7.180703e-02 
       4.000000e-01       7.180703e-02      -7.180703e-02 
       4.000000e-01       7.180703e-02       7.180703e-02 
       4.000000e-01      -7.180703e-02       7.180703e-02 
       4.000000e-01      -7.180703e-02      -7.180703e-02 
       4.000000e-01       7.180703e-02      -7.180703e-02 
       4.000000e-01       7.180703e-02       7.180703e-02 
       4.000000e-01      -7.180703e-02       7.180703e-02 
       5.000000e-01      -7.180703e-02      -7.180703e-02 
       5.000000e-01       7.180703e-02      -7.180703e-02 
       5.000000e-01       7.180703e-02       7.180703e-02 
       5.000000e-01      -7.180703e-02       7.180703e-02 
       5.000000e-01      -7.180703e-02      -7.180703e-02 
       5.000000e-01       7.180703e-02      -7.180703e-02 
       5.000000e-01       7.180703e-02       7.180703e-02 
       5.000000e-01      -7.180703e-02       7.180703e-02 
       6.000000e-01      -7.180703e-02      -7.180703e-02 
       6.000000e-01       7.180703e-02      -7.180703e-02 
       6.000000e-01       7.180703e-02       7.180703e-02 
       6.000000e-01      -7.180703e-02       7.180703e-02 
       6.000000e-01      -7.180703e-02      -7.180703e-02 
       6.000000e-01       7.180703e-02      -7.180703e-02 
       6.000000e-01       7.180703e-02       7.180703e-02 
       6.000000e-01      -7.180703e-02       7.180703e-02 
       7.000000e-01      -7.180703e-02      -7.180703e-02 
       7.000000e-01       7.180703e-02      -7.180703e-02 
       7.000000e-01       7.180703e-02       7.180704e-02 
       7.000000e-01      -7.180703e-02       7.180704e-02 
       7.000000e-01      -7.180703e-02      -7.180703e-02 
       7.000000e-01       7.180703e-02      -7.180703e-02 
       7.000000e-01       7.180703e-02       7.180704e-02 
       7.000000e-01      -7.180703e-02       7.180704e-02 
       8.000000e-01      -7.180703e-02      -7.180703e-02 
       8.000000e-01       7.180703e-02      -7.180703e-02 
       8.000000e-01       7.180703e-02       7.180704e-02 
       8.000000e-01      -7.180703e-02       7.180704e-02 
       8.000000e-01      -7.180703e-02      -7.180703e-02 
       8.000000e-01       7.180703e-02      -7.180703e-02 
       8.000000e-01       7.180703e-02       7.180704e-02 
       8.000000e-01      -7.180703e-02       7.180704e-02 
       9.000000e-01      -7.180703e-02      -7.180703e-02 
       9.000000e-01       7.180703e-02      -7.180703e-02 
       9.000000e-01       7.180703e-02       7.180704e-02 
       9.000000e-01      -7.180703e-02       7.180704e-02 
       9.000000e-01      -7.180703e-02      -7.180703e-02 
       9.000000e-01       7.180703e-02      -7.180703e-02 
       9.000000e-01       7.180703e-02       7.180704e-02 
       9.000000e-01      -7.180703e-02       7.180704e-02 
       1.000000e+00      -7.180703e-02      -7.180703e-02 
       1.000000e+00       7.180703e-02      -7.180703e-02 
       1.000000e+00       7.180703e-02       7.180704e-02 
       1.000000e+00      -7.180703e-02       7.180704e-02 
       1.000000e+00      -7.180703e-02      -7.180703e-02 
       1.000000e+00       7.180703e-02      -7.180703e-02 
       1.000000e+00       7.180703e-02       7.180704e-02 
       1.000000e+00      -7.180703e-02       7.180704e-02 
       1.100000e+00      -7.180703e-02      -7.180703e-02 
       1.100000e+00       7.180703e-02      -7.180703e-02 
       1.100000e+00       7.180703e-02       7.180704e-02 
       1.100000e+00      -7.180703e-02       7.180704e-02 
       1.100000e+00      -7.180703e-02      -7.180703e-02 
       1.100000e+00       7.180703e-02      -7.180703e-02 
       1.100000e+00       7.180703e-02       7.180704e-02 
       1.100000e+00      -7.180703e-02       7.180704e-02 
       1.200000e+00      -7.180703e-02      -7.180703e-02 
       1.200000e+00       7.180703e-02      -7.180703e-02 
       1.200000e+00       7.180703e-02       7.180704e-02 
       1.200000e+00      -7.180703e-02       7.180704e-02 
       1.200000e+00      -7.180703e-02      -7.180703e-02 
       1.200000e+00       7.180703e-02      -7.180703e-02 
       1.200000e+00       7.180703e-02       7.180704e-02 
       1.200000e+00      -7.180703e-02       7.180704e-02 
       1.300000e+00      -7.180703e-02      -7.180702e-02 
       1.300000e+00       7.180703e-02      -7.180702e-02 
       1.300000e+00       7.180703e-02       7.180704e-02 
       1.300000e+00      -7.180703e-02       7.180704e-02 
       1.300000e+00      -7.180703e-02      -7.180702e-02 
       1.300000e+00       7.180703e-02      -7.180702e-02 
       1.300000e+00       7.180703e-02       7.180704e-02 
       1.300000e+00      -7.180703e-02       7.180704e-02 
       1.400000e+00      -7.180703e-02      -7.180702e-02 
       1.400000e+00       7.180703e-02      -7.180702e-02 
       1.400000e+00       7.180703e-02       7.180704e-02 
       1.400000e+00      -7.180703e-02       7.180704e-02 
       1.400000e+00      -7.180703e-02      -7.180702e-02 
       1.400000e+00       7.180703e-02      -7.180702e-02 
       1.400000e+00       7.180703e-02       7.180704e-02 
       1.400000e+00      -7.180703e-02       7.180704e-02 
       1.500000e+00      -7.180703e-02      -7.180702e-02 
       1.500000e+00       7.180703e-02      -7.180702e-02 
       1.500000e+00       7.180703e-02       7.180704e-02 
       1.500000e+00      -7.180703e-02       7.180704e-02 
       1.500000e+00      -7.180703e-02      -7.180702e-02 
       1.500000e+00       7.180703e-02      -7.180702e-02 
       1.500000e+00       7.180703e-02       7.180704e-02 
       1.500000e+00      -7.180703e-02       7.180704e-02 
       1.600000e+00      -7.180703e-02      -7.180702e-02 
       1.600000e+00       7.180703e-02      -7.180702e-02 
       1.600000e+00       7.180703e-02       7.180705e-02 
       1.600000e+00      -7.180703e-02       7.180705e-02 
       1.600000e+00      -7.180703e-02      -7.180702e-02 
       1.600000e+00       7.180703e-02      -7.180702e-02 
       1.600000e+00       7.180703e-02       7.180705e-02 
       1.600000e+00      -7.180703e-02       7.180705e-02 
       1.700000e+00      -7.180703e-02      -7.180702e-02 
       1.700000e+00       7.180703e-02      -7.180702e-02 
       1.700000e+00       7.180703e-02       7.180705e-02 
       1.700000e+00      -7.180703e-02       7.180705e-02 
       1.700000e+00      -7.180703e-02      -7.180702e-02 
       1.700000e+00       7.180703e-02      -7.180702e-02 
       1.700000e+00       7.180703e-02       7.180705e-02 
       1.700000e+00      -7.180703e-02       7.180705e-02 
       1.800000e+00      -7.180703e-02      -7.180702e-02 
       1.800000e+00       7.180703e-02      -7.180702e-02 
       1.800000e+00       7.180703e-02       7.180705e-02 
       1.800000e+00      -7.180703e-02       7.180705e-02 
       1.800000e+00      -7.180703e-02      -7.180702e-02 
       1.800000e+00       7.180703e-02      -7.180702e-02 
       1.800000e+00       7.180703e-02       7.180705e-02 
       1.800000e+00      -7.180703e-02       7.180705e-02 
       1.900000e+00      -7.180703e-02      -7.180702e-02 
       1.900000e+00       7.180703e-02      -7.180702e-02 
       1.900000e+00       7.180703e-02       7.180705e-02 
       1.900000e+00      -7.180703e-02       7.180705e-02 
       1.900000e+00      -7.180703e-02      -7.180702e-02 
       1.900000e+00       7.180703e-02      -7.180702e-02 
       1.900000e+00       7.180703e-02       7.180705e-02 
       1.900000e+00      -7.180703e-02       7.180705e-02 
       2.000000e+00      -7.180703e-02      -7.180701e-02 
       2.000000e+00       7.180703e-02      -7.180701e-02 
       2.000000e+00       7.180703e-02       7.180705e-02 
       2.000000e+00      -7.180703e-02       7.180705e-02 
       2.000000e+00      -7.180703e-02      -7.180701e-02 
       2.000000e+00       7.180703e-02      -7.180701e-02 
       2.000000e+00       7.180703e-02       7.180705e-02 
       2.000000e+00      -7.180703e-02       7.180705e-02 
       2.100000e+00      -7.180703e-02      -7.180701e-02 
[...]
POINT_DATA       800 
VECTORS Displacements float
      -9.83972688e-27       0.00000000e+00       0.00000000e+00 
       4.18590614e-26       0.00000000e+00       0.00000000e+00 
       9.83972688e-27       0.00000000e+00       0.00000000e+00 
      -4.18590614e-26       0.00000000e+00       0.00000000e+00 
       7.85671112e-11       2.74197332e-13       5.46081652e-11 
       7.77820724e-11       2.74197332e-13       5.46081652e-11 
      -7.85672638e-11       2.74197332e-13       5.46081652e-11 
      -7.77822251e-11       2.74197332e-13       5.46081652e-11 
       7.85671112e-11       2.74197332e-13       5.46081652e-11 
       7.77820724e-11       2.74197332e-13       5.46081652e-11 
      -7.85672638e-11       2.74197332e-13       5.46081652e-11 
      -7.77822251e-11       2.74197332e-13       5.46081652e-11 
       1.55624569e-10       1.08975329e-12       2.17038124e-10 
       1.54069590e-10       1.08975329e-12       2.17038124e-10 
      -1.55624902e-10       1.08975329e-12       2.17038124e-10 
      -1.54069923e-10       1.08975329e-12       2.17038124e-10 
       1.55624569e-10       1.08975329e-12       2.17038124e-10 
       1.54069590e-10       1.08975329e-12       2.17038124e-10 
      -1.55624902e-10       1.08975329e-12       2.17038124e-10 
      -1.54069923e-10       1.08975329e-12       2.17038124e-10 
       2.31172415e-10       2.43620402e-12       4.85197993e-10 
       2.28862596e-10       2.43620402e-12       4.85197993e-10 
      -2.31172859e-10       2.43620402e-12       4.85197993e-10 
      -2.28863040e-10       2.43620402e-12       4.85197993e-10 
       2.31172415e-10       2.43620402e-12       4.85197993e-10 
       2.28862596e-10       2.43620402e-12       4.85197993e-10 
      -2.31172859e-10       2.43620402e-12       4.85197993e-10 
      -2.28863040e-10       2.43620402e-12       4.85197993e-10 
       3.05210579e-10       4.30300240e-12       8.56995974e-10 
       3.02160963e-10       4.30300240e-12       8.56995974e-10 
      -3.05211245e-10       4.30300240e-12       8.56995974e-10 
      -3.02161629e-10       4.30300240e-12       8.56995974e-10 
       3.05210579e-10       4.30300240e-12       8.56995974e-10 
       3.02160963e-10       4.30300240e-12       8.56995974e-10 
      -3.05211245e-10       4.30300240e-12       8.56995974e-10 
      -3.02161629e-10       4.30300240e-12       8.56995974e-10 
       3.77739173e-10       6.67968458e-12       1.33034020e-09 
       3.73964859e-10       6.67968458e-12       1.33034020e-09 
      -3.77739950e-10       6.67968458e-12       1.33034020e-09 
      -3.73965636e-10       6.67968458e-12       1.33034020e-09 
       3.77739173e-10       6.67968458e-12       1.33034020e-09 
       3.73964859e-10       6.67968458e-12       1.33034020e-09 
      -3.77739950e-10       6.67968458e-12       1.33034020e-09 
      -3.73965636e-10       6.67968458e-12       1.33034020e-09 
       4.48758142e-10       9.55570345e-12       1.90313880e-09 
       4.44274173e-10       9.55570345e-12       1.90313880e-09 
      -4.48759030e-10       9.55570345e-12       1.90313880e-09 
      -4.44275061e-10       9.55570345e-12       1.90313880e-09 
       4.48758142e-10       9.55570345e-12       1.90313880e-09 
       4.44274173e-10       9.55570345e-12       1.90313880e-09 
      -4.48759030e-10       9.55570345e-12       1.90313880e-09 
      -4.44275061e-10       9.55570345e-12       1.90313880e-09 
       5.18267429e-10       1.29206090e-11       2.57329996e-09 
       5.13088905e-10       1.29206090e-11       2.57329996e-09 
      -5.18268539e-10       1.29206090e-11       2.57329996e-09 
      -5.13090015e-10       1.29206090e-11       2.57329996e-09 
       5.18267429e-10       1.29206090e-11       2.57329996e-09 
       5.13088905e-10       1.29206090e-11       2.57329996e-09 
      -5.18268539e-10       1.29206090e-11       2.57329996e-09 
      -5.13090015e-10       1.29206090e-11       2.57329996e-09 
       5.86267035e-10       1.67638542e-11       3.33873183e-09 
       5.80409165e-10       1.67638542e-11       3.33873183e-09 
      -5.86268367e-10       1.67638542e-11       3.33873183e-09 
      -5.80410497e-10       1.67638542e-11       3.33873183e-09 
       5.86267035e-10       1.67638542e-11       3.33873183e-09 
       5.80409165e-10       1.67638542e-11       3.33873183e-09 
      -5.86268367e-10       1.67638542e-11       3.33873183e-09 
      -5.80410497e-10       1.67638542e-11       3.33873183e-09 
       6.52757182e-10       2.10749751e-11       4.19734256e-09 
       6.46234843e-10       2.10749751e-11       4.19734256e-09 
      -6.52758514e-10       2.10749751e-11       4.19734256e-09 
      -6.46236176e-10       2.10749751e-11       4.19734256e-09 
       6.52757182e-10       2.10749751e-11       4.19734256e-09 
       6.46234843e-10       2.10749751e-11       4.19734256e-09 
      -6.52758514e-10       2.10749751e-11       4.19734256e-09 
      -6.46236176e-10       2.10749751e-11       4.19734256e-09 
       7.17737647e-10       2.58434246e-11       5.14704031e-09 
       7.10565828e-10       2.58434246e-11       5.14704031e-09 
      -7.17739090e-10       2.58434246e-11       5.14704031e-09 
      -7.10567494e-10       2.58434246e-11       5.14704031e-09 
       7.17737425e-10       2.58434107e-11       5.14704031e-09 
       7.10566050e-10       2.58434385e-11       5.14704031e-09 
      -7.17739090e-10       2.58434385e-11       5.14704031e-09 
      -7.10567494e-10       2.58434107e-11       5.14704031e-09 
       7.81287701e-10       3.10588916e-11       6.18576991e-09 
       7.73481279e-10       3.10589332e-11       6.18576991e-09 
      -7.81289478e-10       3.10589332e-11       6.18576992e-09 
      -7.73482833e-10       3.10588916e-11       6.18576992e-09 
       7.81287701e-10       3.10588916e-11       6.18576991e-09 
       7.73481279e-10       3.10589332e-11       6.18576991e-09 
      -7.81289478e-10       3.10589332e-11       6.18576992e-09 
      -7.73482833e-10       3.10588916e-11       6.18576992e-09 
       8.43487502e-10       3.67118419e-11       7.31162306e-09 
       8.35059355e-10       3.67118697e-11       7.31162306e-09 
      -8.43489056e-10       3.67118697e-11       7.31162307e-09 
      -8.35060909e-10       3.67118419e-11       7.31162307e-09 
       8.43487502e-10       3.67118419e-11       7.31162306e-09 
       8.35059355e-10       3.67118697e-11       7.31162306e-09 
      -8.43489056e-10       3.67118697e-11       7.31162307e-09 
      -8.35060909e-10       3.67118419e-11       7.31162307e-09 
       9.04336162e-10       4.27928387e-11       8.52272806e-09 
       8.95300056e-10       4.27928665e-11       8.52272806e-09 
      -9.04337938e-10       4.27928665e-11       8.52272806e-09 
      -8.95301833e-10       4.27928387e-11       8.52272806e-09 
       9.04336162e-10       4.27928387e-11       8.52272806e-09 
       8.95300056e-10       4.27928665e-11       8.52272806e-09 
      -9.04337938e-10       4.27928665e-11       8.52272806e-09 
      -8.95301833e-10       4.27928387e-11       8.52272806e-09 
       9.63834346e-10       4.92924729e-11       9.81721331e-09 
       9.54203827e-10       4.92925145e-11       9.81721331e-09 
      -9.63835900e-10       4.92925145e-11       9.81721331e-09 
      -9.54205381e-10       4.92924729e-11       9.81721331e-09 
       9.63834346e-10       4.92924729e-11       9.81721331e-09 
       9.54203827e-10       4.92925145e-11       9.81721331e-09 
      -9.63835900e-10       4.92925145e-11       9.81721331e-09 
      -9.54205381e-10       4.92924729e-11       9.81721331e-09 
       1.02198161e-09       5.62013769e-11       1.11932071e-08 
       1.01177022e-09       5.62014046e-11       1.11932071e-08 
      -1.02198339e-09       5.62014046e-11       1.11932071e-08 
      -1.01177200e-09       5.62013769e-11       1.11932071e-08 
       1.02198161e-09       5.62013769e-11       1.11932071e-08 
       1.01177022e-09       5.62014046e-11       1.11932071e-08 
      -1.02198339e-09       5.62014046e-11       1.11932071e-08 
      -1.01177200e-09       5.62013769e-11       1.11932071e-08 
       1.07877796e-09       6.35101277e-11       1.26488378e-08 
       1.06799902e-09       6.35101693e-11       1.26488378e-08 
      -1.07878018e-09       6.35101693e-11       1.26488378e-08 
      -1.06800124e-09       6.35101277e-11       1.26488378e-08 
       1.07877796e-09       6.35101277e-11       1.26488378e-08 
       1.06799902e-09       6.35101693e-11       1.26488378e-08 
      -1.07878018e-09       6.35101693e-11       1.26488378e-08 
      -1.06800124e-09       6.35101277e-11       1.26488378e-08 
       1.13422405e-09       7.12093579e-11       1.41822338e-08 
       1.12289111e-09       7.12093856e-11       1.41822338e-08 
      -1.13422605e-09       7.12093856e-11       1.41822338e-08 
      -1.12289311e-09       7.12093579e-11       1.41822338e-08 
       1.13422405e-09       7.12093579e-11       1.41822338e-08 
       1.12289111e-09       7.12093856e-11       1.41822338e-08 
      -1.13422605e-09       7.12093856e-11       1.41822338e-08 
      -1.12289311e-09       7.12093579e-11       1.41822338e-08 
       1.18831944e-09       7.92896443e-11       1.57915234e-08 
       1.17644583e-09       7.92896721e-11       1.57915234e-08 
      -1.18832122e-09       7.92896721e-11       1.57915234e-08 
      -1.17644783e-09       7.92896443e-11       1.57915234e-08 
       1.18831944e-09       7.92896443e-11       1.57915234e-08 
       1.17644583e-09       7.92896721e-11       1.57915234e-08 
      -1.18832122e-09       7.92896721e-11       1.57915234e-08 
      -1.17644783e-09       7.92896443e-11       1.57915234e-08 
       1.24106370e-09       8.77415918e-11       1.74748349e-08 
       1.22866339e-09       8.77416334e-11       1.74748349e-08 
      -1.24106592e-09       8.77416334e-11       1.74748349e-08 
      -1.22866517e-09       8.77415918e-11       1.74748349e-08 
       1.24106370e-09       8.77415918e-11       1.74748349e-08 
       1.22866339e-09       8.77416334e-11       1.74748349e-08 
      -1.24106592e-09       8.77416334e-11       1.74748349e-08 
      -1.22866517e-09       8.77415918e-11       1.74748349e-08 
       1.29245770e-09       9.65558189e-11       1.92302968e-08 
       1.27954314e-09       9.65558467e-11       1.92302968e-08 
      -1.29245969e-09       9.65558467e-11       1.92302968e-08 
      -1.27954580e-09       9.65558189e-11       1.92302968e-08 
       1.29245770e-09       9.65558328e-11       1.92302968e-08 
       1.27954358e-09       9.65558328e-11       1.92302968e-08 
      -1.29245969e-09       9.65558328e-11       1.92302968e-08 
      -1.27954558e-09       9.65558328e-11       1.92302968e-08 
       1.34257983e-09       1.05723111e-10       2.10560740e-08 
       1.32916522e-09       1.05723111e-10       2.10560740e-08 
      -1.34258249e-09       1.05723111e-10       2.10560740e-08 
      -1.32916744e-09       1.05723111e-10       2.10560740e-08 
       1.34257983e-09       1.05723111e-10       2.10560740e-08 
       1.32916522e-09       1.05723111e-10       2.10560740e-08 
      -1.34258249e-09       1.05723111e-10       2.10560740e-08 
      -1.32916744e-09       1.05723111e-10       2.10560740e-08 
       1.39151046e-09       1.15234974e-10       2.29504784e-08 
       1.37760692e-09       1.15234974e-10       2.29504784e-08 
      -1.39151313e-09       1.15234974e-10       2.29504784e-08 
      -1.37760914e-09       1.15234974e-10       2.29504784e-08 
       1.39151046e-09       1.15234974e-10       2.29504784e-08 
       1.37760692e-09       1.15234974e-10       2.29504784e-08 
      -1.39151313e-09       1.15234974e-10       2.29504784e-08 
      -1.37760914e-09       1.15234974e-10       2.29504784e-08 
       1.43924961e-09       1.25083097e-10       2.49118586e-08 
       1.42486911e-09       1.25083097e-10       2.49118586e-08 
      -1.43925138e-09       1.25083097e-10       2.49118586e-08 
      -1.42487089e-09       1.25083097e-10       2.49118586e-08 
       1.43924961e-09       1.25083097e-10       2.49118586e-08 
       1.42486911e-09       1.25083097e-10       2.49118586e-08 
      -1.43925138e-09       1.25083097e-10       2.49118586e-08 
      -1.42487089e-09       1.25083097e-10       2.49118586e-08 
       1.48579682e-09       1.35259248e-10       2.69385631e-08 
       1.47095092e-09       1.35259248e-10       2.69385631e-08 
      -1.48579860e-09       1.35259248e-10       2.69385630e-08 
      -1.47095269e-09       1.35259248e-10       2.69385630e-08 
       1.48579682e-09       1.35259248e-10       2.69385631e-08 
       1.47095092e-09       1.35259248e-10       2.69385631e-08 
      -1.48579860e-09       1.35259248e-10       2.69385630e-08 
      -1.47095269e-09       1.35259248e-10       2.69385630e-08 
       1.53115209e-09       1.45755089e-10       2.90289404e-08 
       1.51585278e-09       1.45755089e-10       2.90289404e-08 
      -1.53115387e-09       1.45755089e-10       2.90289403e-08 
      -1.51585500e-09       1.45755089e-10       2.90289403e-08 
       1.53115209e-09       1.45755089e-10       2.90289404e-08 
       1.51585278e-09       1.45755089e-10       2.90289404e-08 
      -1.53115387e-09       1.45755089e-10       2.90289403e-08 
      -1.51585500e-09       1.45755089e-10       2.90289403e-08 
       1.57531543e-09       1.56562346e-10       3.11813391e-08 
       1.55957469e-09       1.56562346e-10       3.11813391e-08 
      -1.57531765e-09       1.56562346e-10       3.11813390e-08 
      -1.55957691e-09       1.56562346e-10       3.11813390e-08 
       1.57531543e-09       1.56562346e-10       3.11813391e-08 
       1.55957469e-09       1.56562346e-10       3.11813391e-08 
      -1.57531765e-09       1.56562346e-10       3.11813390e-08 
      -1.55957691e-09       1.56562346e-10       3.11813390e-08 
       1.61828684e-09       1.67672695e-10       3.33941076e-08 
       1.60211666e-09       1.67672695e-10       3.33941076e-08 
      -1.61828950e-09       1.67672695e-10       3.33941076e-08 
      -1.60211933e-09       1.67672695e-10       3.33941076e-08 
       1.61828684e-09       1.67672695e-10       3.33941076e-08 
       1.60211666e-09       1.67672695e-10       3.33941076e-08 
      -1.61828950e-09       1.67672695e-10       3.33941076e-08 
      -1.60211933e-09       1.67672695e-10       3.33941076e-08 
       1.66006675e-09       1.79077905e-10       3.56655947e-08 
       1.64347957e-09       1.79077905e-10       3.56655947e-08 
      -1.66006853e-09       1.79077905e-10       3.56655947e-08 
      -1.64348135e-09       1.79077905e-10       3.56655947e-08 
       1.66006675e-09       1.79077905e-10       3.56655947e-08 
       1.64347957e-09       1.79077905e-10       3.56655947e-08 
      -1.66006853e-09       1.79077905e-10       3.56655947e-08 
      -1.64348135e-09       1.79077905e-10       3.56655947e-08 
       1.70065473e-09       1.90769636e-10       3.79941488e-08 
       1.68366165e-09       1.90769636e-10       3.79941488e-08 
      -1.70065695e-09       1.90769636e-10       3.79941487e-08 
      -1.68366387e-09       1.90769636e-10       3.79941487e-08 
       1.70065473e-09       1.90769636e-10       3.79941488e-08 
       1.68366165e-09       1.90769636e-10       3.79941488e-08 
      -1.70065695e-09       1.90769636e-10       3.79941487e-08 
      -1.68366387e-09       1.90769636e-10       3.79941487e-08 
       1.74005077e-09       2.02739617e-10       4.03781184e-08 
       1.72266468e-09       2.02739617e-10       4.03781184e-08 
      -1.74005299e-09       2.02739617e-10       4.03781183e-08 
      -1.72266645e-09       2.02739617e-10       4.03781183e-08 
       1.74005077e-09       2.02739603e-10       4.03781184e-08 
       1.72266423e-09       2.02739631e-10       4.03781184e-08 
      -1.74005343e-09       2.02739631e-10       4.03781183e-08 
      -1.72266690e-09       2.02739603e-10       4.03781183e-08 
       1.77833437e-09       2.14979715e-10       4.28158888e-08 
       1.76056547e-09       2.14979742e-10       4.28158888e-08 
      -1.77833703e-09       2.14979742e-10       4.28158888e-08 
      -1.76056814e-09       2.14979715e-10       4.28158888e-08 
       1.77833437e-09       2.14979715e-10       4.28158888e-08 
       1.76056547e-09       2.14979742e-10       4.28158888e-08 
      -1.77833703e-09       2.14979742e-10       4.28158888e-08 
      -1.76056814e-09       2.14979715e-10       4.28158888e-08 
       1.81558502e-09       2.27482588e-10       4.53059920e-08 
       1.79744397e-09       2.27482630e-10       4.53059920e-08 
      -1.81558812e-09       2.27482630e-10       4.53059920e-08 
      -1.79744708e-09       2.27482588e-10       4.53059920e-08 
       1.81558502e-09       2.27482588e-10       4.53059920e-08 
       1.79744397e-09       2.27482630e-10       4.53059920e-08 
      -1.81558812e-09       2.27482630e-10       4.53059920e-08 
      -1.79744708e-09       2.27482588e-10       4.53059920e-08 
       1.85180360e-09       2.40241035e-10       4.78469968e-08 
       1.83330062e-09       2.40241063e-10       4.78469968e-08 
      -1.85180582e-09       2.40241063e-10       4.78469968e-08 
      -1.83330240e-09       2.40241035e-10       4.78469968e-08 
       1.85180360e-09       2.40241035e-10       4.78469968e-08 
       1.83330062e-09       2.40241063e-10       4.78469968e-08 
      -1.85180582e-09       2.40241063e-10       4.78469968e-08 
      -1.83330240e-09       2.40241035e-10       4.78469968e-08 
       1.88698834e-09       2.53247895e-10       5.04374719e-08 
       1.86813365e-09       2.53247923e-10       5.04374719e-08 
      -1.88699056e-09       2.53247923e-10       5.04374719e-08 
      -1.86813631e-09       2.53247895e-10       5.04374719e-08 
       1.88698834e-09       2.53247895e-10       5.04374719e-08 
       1.86813365e-09       2.53247923e-10       5.04374719e-08 
      -1.88699056e-09       2.53247923e-10       5.04374719e-08 
      -1.86813631e-09       2.53247895e-10       5.04374719e-08 
       1.92114058e-09       2.66495936e-10       5.30759861e-08 
       1.90194482e-09       2.66495978e-10       5.30759861e-08 
      -1.92114324e-09       2.66495978e-10       5.30759861e-08 
      -1.90194704e-09       2.66495936e-10       5.30759861e-08 
       1.92114058e-09       2.66495936e-10       5.30759861e-08 
       1.90194482e-09       2.66495978e-10       5.30759861e-08 
      -1.92114324e-09       2.66495978e-10       5.30759861e-08 
      -1.90194704e-09       2.66495936e-10       5.30759861e-08 
       1.95425942e-09       2.79977999e-10       5.57611080e-08 
       1.93473282e-09       2.79978027e-10       5.57611080e-08 
      -1.95426253e-09       2.79978027e-10       5.57611080e-08 
      -1.93473548e-09       2.79977999e-10       5.57611080e-08 
       1.95425942e-09       2.79977999e-10       5.57611080e-08 
       1.93473282e-09       2.79978027e-10       5.57611080e-08 
      -1.95426253e-09       2.79978027e-10       5.57611080e-08 
      -1.93473548e-09       2.79977999e-10       5.57611080e-08 
       1.98634575e-09       2.93686908e-10       5.84914065e-08 
       1.96649852e-09       2.93686936e-10       5.84914065e-08 
      -1.98634886e-09       2.93686936e-10       5.84914064e-08 
      -1.96650163e-09       2.93686908e-10       5.84914064e-08 
       1.98634575e-09       2.93686908e-10       5.84914065e-08 
       1.96649852e-09       2.93686936e-10       5.84914065e-08 
      -1.98634886e-09       2.93686936e-10       5.84914064e-08 
      -1.96650163e-09       2.93686908e-10       5.84914064e-08 
       2.01739958e-09       3.07615447e-10       6.12654502e-08 
       1.99724193e-09       3.07615489e-10       6.12654502e-08 
      -2.01740180e-09       3.07615489e-10       6.12654502e-08 
      -1.99724415e-09       3.07615447e-10       6.12654502e-08 
       2.01739958e-09       3.07615447e-10       6.12654502e-08 
       1.99724193e-09       3.07615489e-10       6.12654502e-08 