# vtk DataFile Version 2.0
./output/onsasExample_nonLinearCantileverBlade_staitc3D_no_pitch numElements=10/onsasExample_nonLinearCantileverBlade_staitc3D_no_pitch numElements=10_0016.vtk
ASCII
DATASET UNSTRUCTURED_GRID

POINTS 800 float
       2.627037e-24      -7.180703e-02      -7.180703e-02 
       3.251189e-24       7.180703e-02      -7.180703e-02 
      -2.627037e-24       7.180703e-02       7.180703e-02 
      -3.251189e-24      -7.180703e-02       7.180703e-02 
       1.000000e-01      -7.180703e-02      -7.180703e-02 
       1.000000e-01       7.180703e-02      -7.180703e-02 
       1.000000e-01       7.180703e-02       7.180704e-02 
       1.000000e-01      -7.180703e-02       7.180704e-02 
       1.000000e-01      -7.180703e-02      -7.180703e-02 
       1.000000e-01       7.180703e-02      -7.180703e-02 
       1.000000e-01       7.180703e-02       7.180704e-02 
       1.000000e-01      -7.180703e-02       7.180704e-02 
       2.000000e-01      -7.180703e-02      -7.180702e-02 
       2.000000e-01       7.180703e-02      -7.180702e-02 
       2.000000e-01       7.180703e-02       7.180704e-02 
       2.000000e-01      -7.180703e-02       7.180704e-02 
       2.000000e-01      -7.180703e-02      -7.180702e-02 
       2.000000e-01       7.180703e-02      -7.180702e-02 
       2.000000e-01       7.180703e-02       7.180704e-02 
       2.000000e-01      -7.180703e-02       7.180704e-02 
       3.000000e-01      -7.180703e-02      -7.180701e-02 
       3.000000e-01       7.180703e-02      -7.180701e-02 
       3.000000e-01       7.180703e-02       7.180706e-02 
       3.000000e-01      -7.180703e-02       7.180706e-02 
       3.000000e-01      -7.180703e-02      -7.180701e-02 
       3.000000e-01       7.180703e-02      -7.180701e-02 
       3.000000e-01       7.180703e-02       7.180706e-02 
       3.000000e-01      -7.180703e-02       7.180706e-02 
       4.000000e-01      -7.180703e-02      -7.180699e-02 
       4.000000e-01       7.180703e-02      -7.180699e-02 
       4.000000e-01       7.180703e-02       7.180708e-02 
       4.000000e-01      -7.180703e-02       7.180708e-02 
       4.000000e-01      -7.180703e-02      -7.180699e-02 
       4.000000e-01       7.180703e-02      -7.180699e-02 
       4.000000e-01       7.180703e-02       7.180708e-02 
       4.000000e-01      -7.180703e-02       7.180708e-02 
       5.000000e-01      -7.180703e-02      -7.180697e-02 
       5.000000e-01       7.180704e-02      -7.180697e-02 
       5.000000e-01       7.180704e-02       7.180710e-02 
       5.000000e-01      -7.180703e-02       7.180710e-02 
       5.000000e-01      -7.180703e-02      -7.180697e-02 
       5.000000e-01       7.180704e-02      -7.180697e-02 
       5.000000e-01       7.180704e-02       7.180710e-02 
       5.000000e-01      -7.180703e-02       7.180710e-02 
       6.000000e-01      -7.180703e-02      -7.180694e-02 
       6.000000e-01       7.180704e-02      -7.180694e-02 
       6.000000e-01       7.180704e-02       7.180713e-02 
       6.000000e-01      -7.180703e-02       7.180713e-02 
       6.000000e-01      -7.180703e-02      -7.180694e-02 
       6.000000e-01       7.180704e-02      -7.180694e-02 
       6.000000e-01       7.180704e-02       7.180713e-02 
       6.000000e-01      -7.180703e-02       7.180713e-02 
       7.000000e-01      -7.180703e-02      -7.180690e-02 
       7.000000e-01       7.180704e-02      -7.180690e-02 
       7.000000e-01       7.180704e-02       7.180716e-02 
       7.000000e-01      -7.180703e-02       7.180716e-02 
       7.000000e-01      -7.180703e-02      -7.180690e-02 
       7.000000e-01       7.180704e-02      -7.180690e-02 
       7.000000e-01       7.180704e-02       7.180716e-02 
       7.000000e-01      -7.180703e-02       7.180716e-02 
       8.000000e-01      -7.180703e-02      -7.180686e-02 
       8.000000e-01       7.180704e-02      -7.180686e-02 
       8.000000e-01       7.180704e-02       7.180720e-02 
       8.000000e-01      -7.180703e-02       7.180720e-02 
       8.000000e-01      -7.180703e-02      -7.180686e-02 
       8.000000e-01       7.180704e-02      -7.180686e-02 
       8.000000e-01       7.180704e-02       7.180720e-02 
       8.000000e-01      -7.180703e-02       7.180720e-02 
       9.000000e-01      -7.180703e-02      -7.180682e-02 
       9.000000e-01       7.180704e-02      -7.180682e-02 
       9.000000e-01       7.180704e-02       7.180724e-02 
       9.000000e-01      -7.180703e-02       7.180724e-02 
       9.000000e-01      -7.180703e-02      -7.180682e-02 
       9.000000e-01       7.180704e-02      -7.180682e-02 
       9.000000e-01       7.180704e-02       7.180724e-02 
       9.000000e-01      -7.180703e-02       7.180724e-02 
       1.000000e+00      -7.180702e-02      -7.180677e-02 
       1.000000e+00       7.180704e-02      -7.180677e-02 
       1.000000e+00       7.180704e-02       7.180729e-02 
       1.000000e+00      -7.180702e-02       7.180729e-02 
       1.000000e+00      -7.180702e-02      -7.180677e-02 
       1.000000e+00       7.180704e-02      -7.180677e-02 
       1.000000e+00       7.180704e-02       7.180729e-02 
       1.000000e+00      -7.180702e-02       7.180729e-02 
       1.100000e+00      -7.180702e-02      -7.180672e-02 
       1.100000e+00       7.180704e-02      -7.180672e-02 
       1.100000e+00       7.180704e-02       7.180735e-02 
       1.100000e+00      -7.180702e-02       7.180735e-02 
       1.100000e+00      -7.180702e-02      -7.180672e-02 
       1.100000e+00       7.180704e-02      -7.180672e-02 
       1.100000e+00       7.180704e-02       7.180735e-02 
       1.100000e+00      -7.180702e-02       7.180735e-02 
       1.200000e+00      -7.180702e-02      -7.180666e-02 
       1.200000e+00       7.180705e-02      -7.180666e-02 
       1.200000e+00       7.180705e-02       7.180740e-02 
       1.200000e+00      -7.180702e-02       7.180740e-02 
       1.200000e+00      -7.180702e-02      -7.180666e-02 
       1.200000e+00       7.180705e-02      -7.180666e-02 
       1.200000e+00       7.180705e-02       7.180740e-02 
       1.200000e+00      -7.180702e-02       7.180740e-02 
       1.300000e+00      -7.180702e-02      -7.180660e-02 
       1.300000e+00       7.180705e-02      -7.180660e-02 
       1.300000e+00       7.180705e-02       7.180746e-02 
       1.300000e+00      -7.180702e-02       7.180746e-02 
       1.300000e+00      -7.180702e-02      -7.180660e-02 
       1.300000e+00       7.180705e-02      -7.180660e-02 
       1.300000e+00       7.180705e-02       7.180746e-02 
       1.300000e+00      -7.180702e-02       7.180746e-02 
       1.400000e+00      -7.180702e-02      -7.180654e-02 
       1.400000e+00       7.180705e-02      -7.180654e-02 
       1.400000e+00       7.180705e-02       7.180753e-02 
       1.400000e+00      -7.180702e-02       7.180753e-02 
       1.400000e+00      -7.180702e-02      -7.180654e-02 
       1.400000e+00       7.180705e-02      -7.180654e-02 
       1.400000e+00       7.180705e-02       7.180753e-02 
       1.400000e+00      -7.180702e-02       7.180753e-02 
       1.500000e+00      -7.180701e-02      -7.180647e-02 
       1.500000e+00       7.180705e-02      -7.180647e-02 
       1.500000e+00       7.180705e-02       7.180760e-02 
       1.500000e+00      -7.180701e-02       7.180760e-02 
       1.500000e+00      -7.180701e-02      -7.180647e-02 
       1.500000e+00       7.180705e-02      -7.180647e-02 
       1.500000e+00       7.180705e-02       7.180760e-02 
       1.500000e+00      -7.180701e-02       7.180760e-02 
       1.600000e+00      -7.180701e-02      -7.180640e-02 
       1.600000e+00       7.180705e-02      -7.180640e-02 
       1.600000e+00       7.180705e-02       7.180767e-02 
       1.600000e+00      -7.180701e-02       7.180767e-02 
       1.600000e+00      -7.180701e-02      -7.180640e-02 
       1.600000e+00       7.180705e-02      -7.180640e-02 
       1.600000e+00       7.180705e-02       7.180767e-02 
       1.600000e+00      -7.180701e-02       7.180767e-02 
       1.700000e+00      -7.180701e-02      -7.180632e-02 
       1.700000e+00       7.180706e-02      -7.180632e-02 
       1.700000e+00       7.180706e-02       7.180775e-02 
       1.700000e+00      -7.180701e-02       7.180775e-02 
       1.700000e+00      -7.180701e-02      -7.180632e-02 
       1.700000e+00       7.180706e-02      -7.180632e-02 
       1.700000e+00       7.180706e-02       7.180775e-02 
       1.700000e+00      -7.180701e-02       7.180775e-02 
       1.800000e+00      -7.180701e-02      -7.180624e-02 
       1.800000e+00       7.180706e-02      -7.180624e-02 
       1.800000e+00       7.180706e-02       7.180783e-02 
       1.800000e+00      -7.180701e-02       7.180783e-02 
       1.800000e+00      -7.180701e-02      -7.180624e-02 
       1.800000e+00       7.180706e-02      -7.180624e-02 
       1.800000e+00       7.180706e-02       7.180783e-02 
       1.800000e+00      -7.180701e-02       7.180783e-02 
       1.900000e+00      -7.180700e-02      -7.180615e-02 
       1.900000e+00       7.180706e-02      -7.180615e-02 
       1.900000e+00       7.180706e-02       7.180791e-02 
       1.900000e+00      -7.180700e-02       7.180791e-02 
       1.900000e+00      -7.180700e-02      -7.180615e-02 
       1.900000e+00       7.180706e-02      -7.180615e-02 
       1.900000e+00       7.180706e-02       7.180791e-02 
       1.900000e+00      -7.180700e-02       7.180791e-02 
       2.000000e+00      -7.180700e-02      -7.180606e-02 
       2.000000e+00       7.180707e-02      -7.180606e-02 
       2.000000e+00       7.180707e-02       7.180800e-02 
       2.000000e+00      -7.180700e-02       7.180800e-02 
       2.000000e+00      -7.180700e-02      -7.180606e-02 
       2.000000e+00       7.180707e-02      -7.180606e-02 
       2.000000e+00       7.180707e-02       7.180800e-02 
       2.000000e+00      -7.180700e-02       7.180800e-02 
       2.100000e+00      -7.180700e-02      -7.180597e-02 
[...]
POINT_DATA       800 
VECTORS Displacements float
       2.62703706e-24       0.00000000e+00       0.00000000e+00 
       3.25118923e-24       0.00000000e+00      -1.38777878e-17 
      -2.62703706e-24       0.00000000e+00       0.00000000e+00 
      -3.25118923e-24       0.00000000e+00       1.38777878e-17 
       4.07802825e-09       9.45737100e-11       2.75453159e-09 
       3.80725232e-09       9.45737100e-11       2.75453106e-09 
      -4.07928021e-09       9.45742512e-11       2.75453084e-09 
      -3.80850428e-09       9.45742373e-11       2.75453137e-09 
       4.07802825e-09       9.45737100e-11       2.75453159e-09 
       3.80725232e-09       9.45737100e-11       2.75453106e-09 
      -4.07928021e-09       9.45742512e-11       2.75453084e-09 
      -3.80850428e-09       9.45742373e-11       2.75453137e-09 
       8.07768555e-09       3.75880216e-10       1.09477816e-08 
       7.54133653e-09       3.75880230e-10       1.09477805e-08 
      -8.08019227e-09       3.75881257e-10       1.09477797e-08 
      -7.54384324e-09       3.75881243e-10       1.09477808e-08 
       8.07768555e-09       3.75880216e-10       1.09477816e-08 
       7.54133653e-09       3.75880230e-10       1.09477805e-08 
      -8.08019227e-09       3.75881257e-10       1.09477797e-08 
      -7.54384324e-09       3.75881243e-10       1.09477808e-08 
       1.19989719e-08       8.40296693e-10       2.44742338e-08 
       1.12022526e-08       8.40296707e-10       2.44742321e-08 
      -1.20027361e-08       8.40298220e-10       2.44742302e-08 
      -1.12060168e-08       8.40298206e-10       2.44742319e-08 
       1.19989719e-08       8.40296693e-10       2.44742338e-08 
       1.12022526e-08       8.40296707e-10       2.44742321e-08 
      -1.20027361e-08       8.40298220e-10       2.44742302e-08 
      -1.12060168e-08       8.40298206e-10       2.44742319e-08 
       1.58418874e-08       1.48420036e-09       4.32283717e-08 
       1.47900006e-08       1.48420036e-09       4.32283694e-08 
      -1.58469119e-08       1.48420236e-09       4.32283662e-08 
      -1.47950251e-08       1.48420236e-09       4.32283684e-08 
       1.58418874e-08       1.48420036e-09       4.32283717e-08 
       1.47900006e-08       1.48420036e-09       4.32283694e-08 
      -1.58469119e-08       1.48420236e-09       4.32283662e-08 
      -1.47950251e-08       1.48420236e-09       4.32283684e-08 
       1.96064318e-08       2.30396843e-09       6.71046790e-08 
       1.83045805e-08       2.30396843e-09       6.71046762e-08 
      -1.96127193e-08       2.30397089e-09       6.71046712e-08 
      -1.83108680e-08       2.30397089e-09       6.71046740e-08 
       1.96064318e-08       2.30396843e-09       6.71046790e-08 
       1.83045805e-08       2.30396843e-09       6.71046762e-08 
      -1.96127193e-08       2.30397089e-09       6.71046712e-08 
      -1.83108680e-08       2.30397089e-09       6.71046740e-08 
       2.32926055e-08       3.29597810e-09       9.59976395e-08 
       2.17459923e-08       3.29597809e-09       9.59976361e-08 
      -2.33001587e-08       3.29598102e-09       9.59976290e-08 
      -2.17535455e-08       3.29598103e-09       9.59976324e-08 
       2.32926055e-08       3.29597810e-09       9.59976395e-08 
       2.17459923e-08       3.29597809e-09       9.59976361e-08 
      -2.33001587e-08       3.29598102e-09       9.59976290e-08 
      -2.17535455e-08       3.29598103e-09       9.59976324e-08 
       2.69004083e-08       4.45660654e-09       1.29801737e-07 
       2.51142364e-08       4.45660654e-09       1.29801733e-07 
      -2.69092296e-08       4.45660993e-09       1.29801723e-07 
      -2.51230576e-08       4.45660994e-09       1.29801727e-07 
       2.69004083e-08       4.45660654e-09       1.29801737e-07 
       2.51142364e-08       4.45660654e-09       1.29801733e-07 
      -2.69092296e-08       4.45660993e-09       1.29801723e-07 
      -2.51230576e-08       4.45660994e-09       1.29801727e-07 
       3.04298403e-08       5.78223103e-09       1.68411454e-07 
       2.84093123e-08       5.78223101e-09       1.68411450e-07 
      -3.04399321e-08       5.78223484e-09       1.68411438e-07 
      -2.84194042e-08       5.78223486e-09       1.68411442e-07 
       3.04298403e-08       5.78223103e-09       1.68411454e-07 
       2.84093123e-08       5.78223101e-09       1.68411450e-07 
      -3.04399321e-08       5.78223484e-09       1.68411438e-07 
      -2.84194042e-08       5.78223486e-09       1.68411442e-07 
       3.38809015e-08       7.26922873e-09       2.11721276e-07 
       3.16312203e-08       7.26922873e-09       2.11721271e-07 
      -3.38922665e-08       7.26923298e-09       2.11721256e-07 
      -3.16425853e-08       7.26923298e-09       2.11721261e-07 
       3.38809015e-08       7.26922873e-09       2.11721276e-07 
       3.16312203e-08       7.26922873e-09       2.11721271e-07 
      -3.38922665e-08       7.26923298e-09       2.11721256e-07 
      -3.16425853e-08       7.26923298e-09       2.11721261e-07 
       3.72535922e-08       8.91397686e-09       2.59625686e-07 
       3.47799605e-08       8.91397685e-09       2.59625680e-07 
      -3.72662324e-08       8.91398151e-09       2.59625662e-07 
      -3.47926008e-08       8.91398151e-09       2.59625668e-07 
       3.72535920e-08       8.91397685e-09       2.59625686e-07 
       3.47799605e-08       8.91397683e-09       2.59625680e-07 
      -3.72662324e-08       8.91398151e-09       2.59625662e-07 
      -3.47926008e-08       8.91398153e-09       2.59625668e-07 
       4.05522602e-08       1.07129163e-08       3.12021018e-07 
       3.78596074e-08       1.07129163e-08       3.12021012e-07 
      -4.05657310e-08       1.07129211e-08       3.12020990e-07 
      -3.78730780e-08       1.07129211e-08       3.12020997e-07 
       4.05522602e-08       1.07129163e-08       3.12021018e-07 
       3.78596074e-08       1.07129163e-08       3.12021012e-07 
      -4.05657310e-08       1.07129211e-08       3.12020990e-07 
      -3.78730780e-08       1.07129211e-08       3.12020997e-07 
       4.37808054e-08       1.26627419e-08       3.68811013e-07 
       4.08737864e-08       1.26627419e-08       3.68811006e-07 
      -4.37951122e-08       1.26627469e-08       3.68810981e-07 
      -4.08880931e-08       1.26627469e-08       3.68810988e-07 
       4.37808054e-08       1.26627419e-08       3.68811013e-07 
       4.08737864e-08       1.26627419e-08       3.68811006e-07 
      -4.37951122e-08       1.26627469e-08       3.68810981e-07 
      -4.08880931e-08       1.26627469e-08       3.68810988e-07 
       4.69392272e-08       1.47602122e-08       4.29901260e-07 
       4.38224970e-08       1.47602122e-08       4.29901253e-07 
      -4.69543766e-08       1.47602174e-08       4.29901224e-07 
      -4.38376466e-08       1.47602174e-08       4.29901231e-07 
       4.69392272e-08       1.47602122e-08       4.29901260e-07 
       4.38224970e-08       1.47602122e-08       4.29901253e-07 
      -4.69543766e-08       1.47602174e-08       4.29901224e-07 
      -4.38376466e-08       1.47602174e-08       4.29901231e-07 
       5.00275261e-08       1.70020859e-08       4.95197350e-07 
       4.67057402e-08       1.70020858e-08       4.95197343e-07 
      -5.00435238e-08       1.70020912e-08       4.95197310e-07 
      -4.67217378e-08       1.70020912e-08       4.95197318e-07 
       5.00275261e-08       1.70020859e-08       4.95197350e-07 
       4.67057402e-08       1.70020858e-08       4.95197343e-07 
      -5.00435238e-08       1.70020912e-08       4.95197310e-07 
      -4.67217378e-08       1.70020912e-08       4.95197318e-07 
       5.30457016e-08       1.93851213e-08       5.64604875e-07 
       4.95235151e-08       1.93851213e-08       5.64604867e-07 
      -5.30625539e-08       1.93851268e-08       5.64604830e-07 
      -4.95403671e-08       1.93851269e-08       5.64604838e-07 
       5.30457016e-08       1.93851213e-08       5.64604875e-07 
       4.95235151e-08       1.93851213e-08       5.64604867e-07 
      -5.30625539e-08       1.93851268e-08       5.64604830e-07 
      -4.95403671e-08       1.93851269e-08       5.64604838e-07 
       5.59937543e-08       2.19060772e-08       6.38029424e-07 
       5.22758219e-08       2.19060771e-08       6.38029416e-07 
      -5.60114670e-08       2.19060828e-08       6.38029375e-07 
      -5.22935346e-08       2.19060829e-08       6.38029384e-07 
       5.59937543e-08       2.19060772e-08       6.38029424e-07 
       5.22758219e-08       2.19060771e-08       6.38029416e-07 
      -5.60114670e-08       2.19060828e-08       6.38029375e-07 
      -5.22935346e-08       2.19060829e-08       6.38029384e-07 
       5.88716842e-08       2.45617120e-08       7.15376589e-07 
       5.49626618e-08       2.45617119e-08       7.15376580e-07 
      -5.88902622e-08       2.45617178e-08       7.15376535e-07 
      -5.49812398e-08       2.45617179e-08       7.15376544e-07 
       5.88716842e-08       2.45617120e-08       7.15376589e-07 
       5.49626618e-08       2.45617119e-08       7.15376580e-07 
      -5.88902622e-08       2.45617178e-08       7.15376535e-07 
      -5.49812398e-08       2.45617179e-08       7.15376544e-07 
       6.16794911e-08       2.73487843e-08       7.96551960e-07 
       5.75840333e-08       2.73487842e-08       7.96551951e-07 
      -6.16989400e-08       2.73487902e-08       7.96551901e-07 
      -5.76034827e-08       2.73487903e-08       7.96551911e-07 
       6.16794911e-08       2.73487843e-08       7.96551960e-07 
       5.75840333e-08       2.73487842e-08       7.96551951e-07 
      -6.16989400e-08       2.73487902e-08       7.96551901e-07 
      -5.76034827e-08       2.73487903e-08       7.96551911e-07 
       6.44171751e-08       3.02640526e-08       8.81461128e-07 
       6.01399377e-08       3.02640526e-08       8.81461118e-07 
      -6.44375007e-08       3.02640587e-08       8.81461064e-07 
      -6.01602630e-08       3.02640588e-08       8.81461074e-07 
       6.44171751e-08       3.02640526e-08       8.81461128e-07 
       6.01399377e-08       3.02640526e-08       8.81461118e-07 
      -6.44375007e-08       3.02640587e-08       8.81461064e-07 
      -6.01602630e-08       3.02640588e-08       8.81461074e-07 
       6.70847364e-08       3.33042756e-08       9.70009683e-07 
       6.26303742e-08       3.33042755e-08       9.70009673e-07 
      -6.71059435e-08       3.33042818e-08       9.70009614e-07 
      -6.26515813e-08       3.33042819e-08       9.70009624e-07 
       6.70847364e-08       3.33042756e-08       9.70009683e-07 
       6.26303742e-08       3.33042755e-08       9.70009673e-07 
      -6.71059437e-08       3.33042818e-08       9.70009614e-07 
      -6.26515813e-08       3.33042819e-08       9.70009624e-07 
       6.96864575e-08       3.64662753e-08       1.06210507e-06 
       6.50593517e-08       3.64662753e-08       1.06210506e-06 
      -6.97082365e-08       3.64662816e-08       1.06210499e-06 
      -6.50811307e-08       3.64662817e-08       1.06210500e-06 
       6.96864575e-08       3.64662753e-08       1.06210507e-06 
       6.50593517e-08       3.64662753e-08       1.06210506e-06 
      -6.97082365e-08       3.64662816e-08       1.06210499e-06 
      -6.50811307e-08       3.64662817e-08       1.06210500e-06 
       7.22263040e-08       3.97471282e-08       1.15766213e-06 
       6.74305620e-08       3.97471281e-08       1.15766212e-06 
      -7.22486622e-08       3.97471344e-08       1.15766205e-06 
      -6.74529201e-08       3.97471345e-08       1.15766206e-06 
       7.22263040e-08       3.97471282e-08       1.15766213e-06 
       6.74305620e-08       3.97471281e-08       1.15766212e-06 
      -7.22486622e-08       3.97471344e-08       1.15766205e-06 
      -6.74529201e-08       3.97471345e-08       1.15766206e-06 
       7.47042765e-08       4.31439739e-08       1.25659756e-06 
       6.97440061e-08       4.31439738e-08       1.25659755e-06 
      -7.47272204e-08       4.31439802e-08       1.25659748e-06 
      -6.97669500e-08       4.31439802e-08       1.25659749e-06 
       7.47042765e-08       4.31439739e-08       1.25659756e-06 
       6.97440061e-08       4.31439738e-08       1.25659755e-06 
      -7.47272204e-08       4.31439802e-08       1.25659748e-06 
      -6.97669500e-08       4.31439802e-08       1.25659749e-06 
       7.71203745e-08       4.66539525e-08       1.35882806e-06 
       7.19996831e-08       4.66539525e-08       1.35882805e-06 
      -7.71439117e-08       4.66539588e-08       1.35882798e-06 
      -7.20232207e-08       4.66539588e-08       1.35882799e-06 
       7.71203745e-08       4.66539525e-08       1.35882806e-06 
       7.19996831e-08       4.66539525e-08       1.35882805e-06 
      -7.71439117e-08       4.66539588e-08       1.35882798e-06 
      -7.20232207e-08       4.66539588e-08       1.35882799e-06 
       7.94745980e-08       5.02742039e-08       1.46427034e-06 
       7.41975934e-08       5.02742038e-08       1.46427033e-06 
      -7.94987360e-08       5.02742101e-08       1.46427024e-06 
      -7.42217314e-08       5.02742102e-08       1.46427025e-06 
       7.94745980e-08       5.02742039e-08       1.46427034e-06 
       7.41975934e-08       5.02742038e-08       1.46427033e-06 
      -7.94987360e-08       5.02742101e-08       1.46427024e-06 
      -7.42217314e-08       5.02742102e-08       1.46427025e-06 
       8.17669474e-08       5.40018679e-08       1.57284108e-06 
       7.63377370e-08       5.40018678e-08       1.57284106e-06 
      -8.17916930e-08       5.40018741e-08       1.57284098e-06 
      -7.63624821e-08       5.40018742e-08       1.57284099e-06 
       8.17669474e-08       5.40018679e-08       1.57284108e-06 
       7.63377370e-08       5.40018678e-08       1.57284106e-06 
      -8.17916930e-08       5.40018741e-08       1.57284098e-06 
      -7.63624821e-08       5.40018742e-08       1.57284099e-06 
       8.39974232e-08       5.78340845e-08       1.68445698e-06 
       7.84201144e-08       5.78340844e-08       1.68445697e-06 
      -8.40227821e-08       5.78340907e-08       1.68445687e-06 
      -7.84454732e-08       5.78340908e-08       1.68445689e-06 
       8.39974232e-08       5.78340845e-08       1.68445698e-06 
       7.84201144e-08       5.78340844e-08       1.68445697e-06 
      -8.40227821e-08       5.78340907e-08       1.68445687e-06 
      -7.84454732e-08       5.78340908e-08       1.68445689e-06 
       8.61660259e-08       6.17679935e-08       1.79903474e-06 
       8.04447260e-08       6.17679934e-08       1.79903473e-06 
      -8.61920038e-08       6.17679997e-08       1.79903463e-06 
      -8.04707039e-08       6.17679998e-08       1.79903465e-06 
       8.61660259e-08       6.17679935e-08       1.79903474e-06 
       8.04447260e-08       6.17679934e-08       1.79903473e-06 
      -8.61920038e-08       6.17679997e-08       1.79903463e-06 
      -8.04707039e-08       6.17679998e-08       1.79903465e-06 
       8.82727540e-08       6.58007349e-08       1.91649107e-06 
       8.24115705e-08       6.58007348e-08       1.91649105e-06 
      -8.82993576e-08       6.58007411e-08       1.91649095e-06 
      -8.24381745e-08       6.58007412e-08       1.91649097e-06 
       8.82727540e-08       6.58007349e-08       1.91649107e-06 
       8.24115705e-08       6.58007348e-08       1.91649105e-06 
      -8.82993576e-08       6.58007411e-08       1.91649095e-06 
      -8.24381745e-08       6.58007412e-08       1.91649097e-06 
       9.03176085e-08       6.99294486e-08       2.03674265e-06 
       8.43206491e-08       6.99294485e-08       2.03674263e-06 
      -9.03448445e-08       6.99294548e-08       2.03674253e-06 
      -8.43478851e-08       6.99294549e-08       2.03674254e-06 
       9.03176085e-08       6.99294486e-08       2.03674265e-06 
       8.43206491e-08       6.99294485e-08       2.03674263e-06 
      -9.03448445e-08       6.99294547e-08       2.03674253e-06 
      -8.43478851e-08       6.99294549e-08       2.03674254e-06 
       9.23048198e-08       7.41513380e-08       2.15970803e-06 
       8.61759184e-08       7.41513378e-08       2.15970802e-06 
      -9.23324821e-08       7.41513441e-08       2.15970791e-06 
      -8.62035807e-08       7.41513442e-08       2.15970792e-06 
       9.23048198e-08       7.41513380e-08       2.15970803e-06 
       8.61759184e-08       7.41513378e-08       2.15970802e-06 
      -9.23324821e-08       7.41513441e-08       2.15970791e-06 
      -8.62035807e-08       7.41513442e-08       2.15970792e-06 
       9.42384060e-08       7.84638608e-08       2.28531318e-06 
       8.79811224e-08       7.84638606e-08       2.28531316e-06 
      -9.42665022e-08       7.84638668e-08       2.28531305e-06 
      -8.80092181e-08       7.84638669e-08       2.28531306e-06 
       9.42384060e-08       7.84638608e-08       2.28531318e-06 
       8.79811224e-08       7.84638606e-08       2.28531316e-06 
      -9.42665022e-08       7.84638668e-08       2.28531305e-06 
      -8.80092181e-08       7.84638669e-08       2.28531306e-06 
       9.61183684e-08       8.28645382e-08       2.41348589e-06 
       8.97362620e-08       8.28645381e-08       2.41348587e-06 
      -9.61469038e-08       8.28645441e-08       2.41348575e-06 
      -8.97647974e-08       8.28645443e-08       2.41348577e-06 
       9.61183684e-08       8.28645382e-08       2.41348589e-06 
       8.97362620e-08       8.28645381e-08       2.41348587e-06 
      -9.61469038e-08       8.28645441e-08       2.41348575e-06 
      -8.97647974e-08       8.28645443e-08       2.41348577e-06 
       9.79447052e-08       8.73508915e-08       2.54415396e-06 
       9.14413363e-08       8.73508914e-08       2.54415395e-06 
      -9.79736878e-08       8.73508973e-08       2.54415382e-06 
      -9.14703189e-08       8.73508975e-08       2.54415384e-06 
       9.79447052e-08       8.73508915e-08       2.54415396e-06 
       9.14413363e-08       8.73508914e-08       2.54415395e-06 
      -9.79736878e-08       8.73508973e-08       2.54415382e-06 
      -9.14703189e-08       8.73508975e-08       2.54415384e-06 
       9.97174179e-08       9.19204420e-08       2.67724521e-06 
       9.30963457e-08       9.19204418e-08       2.67724520e-06 
      -9.97468543e-08       9.19204477e-08       2.67724507e-06 
      -9.31257822e-08       9.19204479e-08       2.67724508e-06 
       9.97174179e-08       9.19204420e-08       2.67724521e-06 
       9.30963457e-08       9.19204418e-08       2.67724520e-06 
      -9.97468543e-08       9.19204477e-08       2.67724507e-06 
      -9.31257822e-08       9.19204479e-08       2.67724508e-06 
       1.01436506e-07       9.65707108e-08       2.81268744e-06 
       9.47012908e-08       9.65707107e-08       2.81268743e-06 
      -1.01466402e-07       9.65707165e-08       2.81268729e-06 
      -9.47311869e-08       9.65707167e-08       2.81268731e-06 
       1.01436506e-07       9.65707108e-08       2.81268744e-06 
       9.47012908e-08       9.65707107e-08       2.81268743e-06 
      -1.01466402e-07       9.65707165e-08       2.81268729e-06 
      -9.47311869e-08       9.65707167e-08       2.81268731e-06 
       1.03101970e-07       1.01299219e-07       2.95040845e-06 
       9.62561715e-08       1.01299219e-07       2.95040844e-06 
      -1.03132332e-07       1.01299225e-07       2.95040830e-06 
      -9.62865339e-08       1.01299225e-07       2.95040831e-06 
       1.03101970e-07       1.01299219e-07       2.95040845e-06 
       9.62561715e-08       1.01299219e-07       2.95040844e-06 
      -1.03132332e-07       1.01299225e-07       2.95040830e-06 
      -9.62865339e-08       1.01299225e-07       2.95040831e-06 
       1.04713810e-07       1.06103489e-07       3.09033605e-06 
       9.77609882e-08       1.06103489e-07       3.09033603e-06 
      -1.04744643e-07       1.06103494e-07       3.09033589e-06 
      -9.77918213e-08       1.06103494e-07       3.09033590e-06 
       1.04713810e-07       1.06103489e-07       3.09033605e-06 
       9.77609882e-08       1.06103489e-07       3.09033603e-06 