# vtk DataFile Version 2.0
./output/onsasExample_nonLinearCantileverBlade_staitc3D_no_pitch numElements=10/onsasExample_nonLinearCantileverBlade_staitc3D_no_pitch numElements=10_0010.vtk
ASCII
DATASET UNSTRUCTURED_GRID

POINTS 800 float
      -2.687886e-24      -7.180703e-02      -7.180703e-02 
      -8.496733e-25       7.180703e-02      -7.180703e-02 
       2.687886e-24       7.180703e-02       7.180703e-02 
       8.496733e-25      -7.180703e-02       7.180703e-02 
       1.000000e-01      -7.180703e-02      -7.180703e-02 
       1.000000e-01       7.180703e-02      -7.180703e-02 
       1.000000e-01       7.180703e-02       7.180703e-02 
       1.000000e-01      -7.180703e-02       7.180703e-02 
       1.000000e-01      -7.180703e-02      -7.180703e-02 
       1.000000e-01       7.180703e-02      -7.180703e-02 
       1.000000e-01       7.180703e-02       7.180703e-02 
       1.000000e-01      -7.180703e-02       7.180703e-02 
       2.000000e-01      -7.180703e-02      -7.180703e-02 
       2.000000e-01       7.180703e-02      -7.180703e-02 
       2.000000e-01       7.180703e-02       7.180704e-02 
       2.000000e-01      -7.180703e-02       7.180704e-02 
       2.000000e-01      -7.180703e-02      -7.180703e-02 
       2.000000e-01       7.180703e-02      -7.180703e-02 
       2.000000e-01       7.180703e-02       7.180704e-02 
       2.000000e-01      -7.180703e-02       7.180704e-02 
       3.000000e-01      -7.180703e-02      -7.180702e-02 
       3.000000e-01       7.180703e-02      -7.180702e-02 
       3.000000e-01       7.180703e-02       7.180704e-02 
       3.000000e-01      -7.180703e-02       7.180704e-02 
       3.000000e-01      -7.180703e-02      -7.180702e-02 
       3.000000e-01       7.180703e-02      -7.180702e-02 
       3.000000e-01       7.180703e-02       7.180704e-02 
       3.000000e-01      -7.180703e-02       7.180704e-02 
       4.000000e-01      -7.180703e-02      -7.180701e-02 
       4.000000e-01       7.180703e-02      -7.180701e-02 
       4.000000e-01       7.180703e-02       7.180705e-02 
       4.000000e-01      -7.180703e-02       7.180705e-02 
       4.000000e-01      -7.180703e-02      -7.180701e-02 
       4.000000e-01       7.180703e-02      -7.180701e-02 
       4.000000e-01       7.180703e-02       7.180705e-02 
       4.000000e-01      -7.180703e-02       7.180705e-02 
       5.000000e-01      -7.180703e-02      -7.180700e-02 
       5.000000e-01       7.180703e-02      -7.180700e-02 
       5.000000e-01       7.180703e-02       7.180706e-02 
       5.000000e-01      -7.180703e-02       7.180706e-02 
       5.000000e-01      -7.180703e-02      -7.180700e-02 
       5.000000e-01       7.180703e-02      -7.180700e-02 
       5.000000e-01       7.180703e-02       7.180706e-02 
       5.000000e-01      -7.180703e-02       7.180706e-02 
       6.000000e-01      -7.180703e-02      -7.180699e-02 
       6.000000e-01       7.180703e-02      -7.180699e-02 
       6.000000e-01       7.180703e-02       7.180707e-02 
       6.000000e-01      -7.180703e-02       7.180707e-02 
       6.000000e-01      -7.180703e-02      -7.180699e-02 
       6.000000e-01       7.180703e-02      -7.180699e-02 
       6.000000e-01       7.180703e-02       7.180707e-02 
       6.000000e-01      -7.180703e-02       7.180707e-02 
       7.000000e-01      -7.180703e-02      -7.180698e-02 
       7.000000e-01       7.180703e-02      -7.180698e-02 
       7.000000e-01       7.180703e-02       7.180709e-02 
       7.000000e-01      -7.180703e-02       7.180709e-02 
       7.000000e-01      -7.180703e-02      -7.180698e-02 
       7.000000e-01       7.180703e-02      -7.180698e-02 
       7.000000e-01       7.180703e-02       7.180709e-02 
       7.000000e-01      -7.180703e-02       7.180709e-02 
       8.000000e-01      -7.180703e-02      -7.180696e-02 
       8.000000e-01       7.180703e-02      -7.180696e-02 
       8.000000e-01       7.180703e-02       7.180710e-02 
       8.000000e-01      -7.180703e-02       7.180710e-02 
       8.000000e-01      -7.180703e-02      -7.180696e-02 
       8.000000e-01       7.180703e-02      -7.180696e-02 
       8.000000e-01       7.180703e-02       7.180710e-02 
       8.000000e-01      -7.180703e-02       7.180710e-02 
       9.000000e-01      -7.180703e-02      -7.180694e-02 
       9.000000e-01       7.180703e-02      -7.180694e-02 
       9.000000e-01       7.180703e-02       7.180712e-02 
       9.000000e-01      -7.180703e-02       7.180712e-02 
       9.000000e-01      -7.180703e-02      -7.180694e-02 
       9.000000e-01       7.180703e-02      -7.180694e-02 
       9.000000e-01       7.180703e-02       7.180712e-02 
       9.000000e-01      -7.180703e-02       7.180712e-02 
       1.000000e+00      -7.180703e-02      -7.180692e-02 
       1.000000e+00       7.180703e-02      -7.180692e-02 
       1.000000e+00       7.180703e-02       7.180714e-02 
       1.000000e+00      -7.180703e-02       7.180714e-02 
       1.000000e+00      -7.180703e-02      -7.180692e-02 
       1.000000e+00       7.180703e-02      -7.180692e-02 
       1.000000e+00       7.180703e-02       7.180714e-02 
       1.000000e+00      -7.180703e-02       7.180714e-02 
       1.100000e+00      -7.180703e-02      -7.180690e-02 
       1.100000e+00       7.180704e-02      -7.180690e-02 
       1.100000e+00       7.180704e-02       7.180717e-02 
       1.100000e+00      -7.180703e-02       7.180717e-02 
       1.100000e+00      -7.180703e-02      -7.180690e-02 
       1.100000e+00       7.180704e-02      -7.180690e-02 
       1.100000e+00       7.180704e-02       7.180717e-02 
       1.100000e+00      -7.180703e-02       7.180717e-02 
       1.200000e+00      -7.180703e-02      -7.180688e-02 
       1.200000e+00       7.180704e-02      -7.180688e-02 
       1.200000e+00       7.180704e-02       7.180719e-02 
       1.200000e+00      -7.180703e-02       7.180719e-02 
       1.200000e+00      -7.180703e-02      -7.180688e-02 
       1.200000e+00       7.180704e-02      -7.180688e-02 
       1.200000e+00       7.180704e-02       7.180719e-02 
       1.200000e+00      -7.180703e-02       7.180719e-02 
       1.300000e+00      -7.180703e-02      -7.180685e-02 
       1.300000e+00       7.180704e-02      -7.180685e-02 
       1.300000e+00       7.180704e-02       7.180722e-02 
       1.300000e+00      -7.180703e-02       7.180722e-02 
       1.300000e+00      -7.180703e-02      -7.180685e-02 
       1.300000e+00       7.180704e-02      -7.180685e-02 
       1.300000e+00       7.180704e-02       7.180722e-02 
       1.300000e+00      -7.180703e-02       7.180722e-02 
       1.400000e+00      -7.180703e-02      -7.180682e-02 
       1.400000e+00       7.180704e-02      -7.180682e-02 
       1.400000e+00       7.180704e-02       7.180724e-02 
       1.400000e+00      -7.180703e-02       7.180724e-02 
       1.400000e+00      -7.180703e-02      -7.180682e-02 
       1.400000e+00       7.180704e-02      -7.180682e-02 
       1.400000e+00       7.180704e-02       7.180724e-02 
       1.400000e+00      -7.180703e-02       7.180724e-02 
       1.500000e+00      -7.180703e-02      -7.180679e-02 
       1.500000e+00       7.180704e-02      -7.180679e-02 
       1.500000e+00       7.180704e-02       7.180727e-02 
       1.500000e+00      -7.180703e-02       7.180727e-02 
       1.500000e+00      -7.180703e-02      -7.180679e-02 
       1.500000e+00       7.180704e-02      -7.180679e-02 
       1.500000e+00       7.180704e-02       7.180727e-02 
       1.500000e+00      -7.180703e-02       7.180727e-02 
       1.600000e+00      -7.180703e-02      -7.180676e-02 
       1.600000e+00       7.180704e-02      -7.180676e-02 
       1.600000e+00       7.180704e-02       7.180730e-02 
       1.600000e+00      -7.180703e-02       7.180730e-02 
       1.600000e+00      -7.180703e-02      -7.180676e-02 
       1.600000e+00       7.180704e-02      -7.180676e-02 
       1.600000e+00       7.180704e-02       7.180730e-02 
       1.600000e+00      -7.180703e-02       7.180730e-02 
       1.700000e+00      -7.180703e-02      -7.180673e-02 
       1.700000e+00       7.180704e-02      -7.180673e-02 
       1.700000e+00       7.180704e-02       7.180734e-02 
       1.700000e+00      -7.180703e-02       7.180734e-02 
       1.700000e+00      -7.180703e-02      -7.180673e-02 
       1.700000e+00       7.180704e-02      -7.180673e-02 
       1.700000e+00       7.180704e-02       7.180734e-02 
       1.700000e+00      -7.180703e-02       7.180734e-02 
       1.800000e+00      -7.180703e-02      -7.180669e-02 
       1.800000e+00       7.180704e-02      -7.180669e-02 
       1.800000e+00       7.180704e-02       7.180737e-02 
       1.800000e+00      -7.180703e-02       7.180737e-02 
       1.800000e+00      -7.180703e-02      -7.180669e-02 
       1.800000e+00       7.180704e-02      -7.180669e-02 
       1.800000e+00       7.180704e-02       7.180737e-02 
       1.800000e+00      -7.180703e-02       7.180737e-02 
       1.900000e+00      -7.180703e-02      -7.180666e-02 
       1.900000e+00       7.180704e-02      -7.180666e-02 
       1.900000e+00       7.180704e-02       7.180741e-02 
       1.900000e+00      -7.180703e-02       7.180741e-02 
       1.900000e+00      -7.180703e-02      -7.180666e-02 
       1.900000e+00       7.180704e-02      -7.180666e-02 
       1.900000e+00       7.180704e-02       7.180741e-02 
       1.900000e+00      -7.180703e-02       7.180741e-02 
       2.000000e+00      -7.180703e-02      -7.180662e-02 
       2.000000e+00       7.180704e-02      -7.180662e-02 
       2.000000e+00       7.180704e-02       7.180745e-02 
       2.000000e+00      -7.180703e-02       7.180745e-02 
       2.000000e+00      -7.180703e-02      -7.180662e-02 
       2.000000e+00       7.180704e-02      -7.180662e-02 
       2.000000e+00       7.180704e-02       7.180745e-02 
       2.000000e+00      -7.180703e-02       7.180745e-02 
       2.100000e+00      -7.180703e-02      -7.180658e-02 
[...]
POINT_DATA       800 
VECTORS Displacements float
      -2.68788625e-24      -1.38777878e-17       0.00000000e+00 
      -8.49673268e-25       1.38777878e-17      -1.38777878e-17 
       2.68788625e-24       1.38777878e-17       0.00000000e+00 
       8.49673268e-25      -1.38777878e-17       1.38777878e-17 
       1.70282730e-09       1.84937204e-11       1.17107789e-09 
       1.64987755e-09       1.84937482e-11       1.17107785e-09 
      -1.70304996e-09       1.84938037e-11       1.17107782e-09 
      -1.65010022e-09       1.84937760e-11       1.17107786e-09 
       1.70282730e-09       1.84937204e-11       1.17107789e-09 
       1.64987755e-09       1.84937482e-11       1.17107785e-09 
      -1.70304996e-09       1.84938037e-11       1.17107782e-09 
      -1.65010022e-09       1.84937760e-11       1.17107786e-09 
       3.37293313e-09       7.35027178e-11       4.65440496e-09 
       3.26805105e-09       7.35027594e-11       4.65440486e-09 
      -3.37337897e-09       7.35028566e-11       4.65440471e-09 
      -3.26849689e-09       7.35028149e-11       4.65440481e-09 
       3.37293313e-09       7.35027178e-11       4.65440496e-09 
       3.26805105e-09       7.35027594e-11       4.65440486e-09 
      -3.37337897e-09       7.35028566e-11       4.65440471e-09 
      -3.26849689e-09       7.35028149e-11       4.65440481e-09 
       5.01031744e-09       1.64318559e-10       1.04051213e-08 
       4.85452045e-09       1.64318587e-10       1.04051212e-08 
      -5.01098701e-09       1.64318711e-10       1.04051209e-08 
      -4.85519003e-09       1.64318670e-10       1.04051210e-08 
       5.01031744e-09       1.64318559e-10       1.04051213e-08 
       4.85452045e-09       1.64318587e-10       1.04051212e-08 
      -5.01098701e-09       1.64318711e-10       1.04051209e-08 
      -4.85519003e-09       1.64318670e-10       1.04051210e-08 
       6.61498034e-09       2.90232768e-10       1.83783673e-08 
       6.40928582e-09       2.90232796e-10       1.83783671e-08 
      -6.61587402e-09       2.90232963e-10       1.83783665e-08 
      -6.41017950e-09       2.90232935e-10       1.83783667e-08 
       6.61498034e-09       2.90232768e-10       1.83783673e-08 
       6.40928582e-09       2.90232796e-10       1.83783671e-08 
      -6.61587402e-09       2.90232963e-10       1.83783665e-08 
      -6.41017950e-09       2.90232935e-10       1.83783667e-08 
       8.18692181e-09       4.50536927e-10       2.85292828e-08 
       7.93234711e-09       4.50536955e-10       2.85292826e-08 
      -8.18804019e-09       4.50537177e-10       2.85292817e-08 
      -7.93346555e-09       4.50537149e-10       2.85292819e-08 
       8.18692181e-09       4.50536927e-10       2.85292828e-08 
       7.93234711e-09       4.50536955e-10       2.85292826e-08 
      -8.18804019e-09       4.50537177e-10       2.85292817e-08 
      -7.93346555e-09       4.50537149e-10       2.85292819e-08 
       9.72614178e-09       6.44522630e-10       4.08130082e-08 
       9.42370437e-09       6.44522671e-10       4.08130079e-08 
      -9.72748526e-09       6.44522907e-10       4.08130066e-08 
      -9.42504785e-09       6.44522880e-10       4.08130069e-08 
       9.72614178e-09       6.44522630e-10       4.08130082e-08 
       9.42370437e-09       6.44522671e-10       4.08130079e-08 
      -9.72748526e-09       6.44522907e-10       4.08130066e-08 
      -9.42504785e-09       6.44522880e-10       4.08130069e-08 
       1.12326402e-08       8.71481415e-10       5.51846835e-08 
       1.08833574e-08       8.71481456e-10       5.51846832e-08 
      -1.12342093e-08       8.71481748e-10       5.51846815e-08 
      -1.08849266e-08       8.71481720e-10       5.51846819e-08 
       1.12326402e-08       8.71481415e-10       5.51846835e-08 
       1.08833574e-08       8.71481456e-10       5.51846832e-08 
      -1.12342093e-08       8.71481748e-10       5.51846815e-08 
      -1.08849266e-08       8.71481720e-10       5.51846819e-08 
       1.27064174e-08       1.13070490e-09       7.15994490e-08 
       1.23113068e-08       1.13070493e-09       7.15994486e-08 
      -1.27082125e-08       1.13070525e-09       7.15994465e-08 
      -1.23131019e-08       1.13070522e-09       7.15994469e-08 
       1.27064174e-08       1.13070490e-09       7.15994490e-08 
       1.23113068e-08       1.13070493e-09       7.15994486e-08 
      -1.27082125e-08       1.13070525e-09       7.15994465e-08 
      -1.23131019e-08       1.13070522e-09       7.15994469e-08 
       1.41474729e-08       1.42148460e-09       9.00124448e-08 
       1.37075518e-08       1.42148462e-09       9.00124444e-08 
      -1.41494947e-08       1.42148500e-09       9.00124417e-08 
      -1.37095736e-08       1.42148496e-09       9.00124422e-08 
       1.41474729e-08       1.42148460e-09       9.00124448e-08 
       1.37075518e-08       1.42148462e-09       9.00124444e-08 
      -1.41494947e-08       1.42148500e-09       9.00124417e-08 
      -1.37095736e-08       1.42148496e-09       9.00124422e-08 
       1.55558069e-08       1.74311211e-09       1.10378811e-07 
       1.50720929e-08       1.74311214e-09       1.10378811e-07 
      -1.55580557e-08       1.74311254e-09       1.10378807e-07 
      -1.50743414e-08       1.74311250e-09       1.10378808e-07 
       1.55558071e-08       1.74311211e-09       1.10378811e-07 
       1.50720929e-08       1.74311214e-09       1.10378811e-07 
      -1.55580557e-08       1.74311253e-09       1.10378807e-07 
      -1.50743416e-08       1.74311250e-09       1.10378808e-07 
       1.69331817e-08       2.09489143e-09       1.32654475e-07 
       1.64066383e-08       2.09489147e-09       1.32654474e-07 
      -1.69355783e-08       2.09489187e-09       1.32654471e-07 
      -1.64090348e-08       2.09489184e-09       1.32654471e-07 
       1.69331817e-08       2.09489143e-09       1.32654475e-07 
       1.64066383e-08       2.09489147e-09       1.32654474e-07 
      -1.69355783e-08       2.09489187e-09       1.32654471e-07 
      -1.64090348e-08       2.09489184e-09       1.32654471e-07 
       1.82812792e-08       2.47617626e-09       1.56798512e-07 
       1.77128168e-08       2.47617631e-09       1.56798511e-07 
      -1.82838242e-08       2.47617672e-09       1.56798507e-07 
      -1.77153621e-08       2.47617669e-09       1.56798507e-07 
       1.82812792e-08       2.47617626e-09       1.56798512e-07 
       1.77128168e-08       2.47617631e-09       1.56798511e-07 
      -1.82838242e-08       2.47617672e-09       1.56798507e-07 
      -1.77153621e-08       2.47617669e-09       1.56798507e-07 
       1.96000989e-08       2.88633277e-09       1.82770784e-07 
       1.89906280e-08       2.88633280e-09       1.82770783e-07 
      -1.96027941e-08       2.88633324e-09       1.82770778e-07 
      -1.89933231e-08       2.88633321e-09       1.82770778e-07 
       1.96000989e-08       2.88633277e-09       1.82770784e-07 
       1.89906280e-08       2.88633280e-09       1.82770783e-07 
      -1.96027941e-08       2.88633324e-09       1.82770778e-07 
      -1.89933231e-08       2.88633321e-09       1.82770778e-07 
       2.08896414e-08       3.32472708e-09       2.10531153e-07 
       2.02400723e-08       3.32472710e-09       2.10531152e-07 
      -2.08924875e-08       3.32472756e-09       2.10531146e-07 
      -2.02429182e-08       3.32472752e-09       2.10531147e-07 
       2.08896414e-08       3.32472708e-09       2.10531153e-07 
       2.02400723e-08       3.32472710e-09       2.10531152e-07 
      -2.08924875e-08       3.32472756e-09       2.10531146e-07 
      -2.02429182e-08       3.32472752e-09       2.10531147e-07 
       2.21499064e-08       3.79072529e-09       2.40039482e-07 
       2.14611493e-08       3.79072533e-09       2.40039481e-07 
      -2.21529048e-08       3.79072580e-09       2.40039475e-07 
      -2.14641476e-08       3.79072576e-09       2.40039475e-07 
       2.21499064e-08       3.79072529e-09       2.40039482e-07 
       2.14611493e-08       3.79072533e-09       2.40039481e-07 
      -2.21529048e-08       3.79072580e-09       2.40039475e-07 
      -2.14641476e-08       3.79072576e-09       2.40039475e-07 
       2.33808941e-08       4.28369361e-09       2.71255633e-07 
       2.26538592e-08       4.28369364e-09       2.71255632e-07 
      -2.33840454e-08       4.28369414e-09       2.71255625e-07 
      -2.26570105e-08       4.28369409e-09       2.71255625e-07 
       2.33808941e-08       4.28369361e-09       2.71255633e-07 
       2.26538592e-08       4.28369364e-09       2.71255632e-07 
      -2.33840454e-08       4.28369414e-09       2.71255625e-07 
      -2.26570105e-08       4.28369409e-09       2.71255625e-07 
       2.45826042e-08       4.80299817e-09       3.04139467e-07 
       2.38182019e-08       4.80299819e-09       3.04139467e-07 
      -2.45859095e-08       4.80299867e-09       3.04139459e-07 
      -2.38215074e-08       4.80299864e-09       3.04139459e-07 
       2.45826042e-08       4.80299817e-09       3.04139467e-07 
       2.38182019e-08       4.80299819e-09       3.04139467e-07 
      -2.45859095e-08       4.80299867e-09       3.04139459e-07 
      -2.38215074e-08       4.80299864e-09       3.04139459e-07 
       2.57550370e-08       5.34800507e-09       3.38650849e-07 
       2.49541781e-08       5.34800509e-09       3.38650848e-07 
      -2.57584978e-08       5.34800558e-09       3.38650839e-07 
      -2.49576384e-08       5.34800555e-09       3.38650840e-07 
       2.57550370e-08       5.34800507e-09       3.38650849e-07 
       2.49541781e-08       5.34800509e-09       3.38650848e-07 
      -2.57584978e-08       5.34800558e-09       3.38650839e-07 
      -2.49576384e-08       5.34800555e-09       3.38650840e-07 
       2.68981928e-08       5.91808046e-09       3.74749639e-07 
       2.60617867e-08       5.91808050e-09       3.74749638e-07 
      -2.69018092e-08       5.91808100e-09       3.74749628e-07 
      -2.60654032e-08       5.91808097e-09       3.74749629e-07 
       2.68981928e-08       5.91808046e-09       3.74749639e-07 
       2.60617867e-08       5.91808050e-09       3.74749638e-07 
      -2.69018092e-08       5.91808100e-09       3.74749628e-07 
      -2.60654032e-08       5.91808097e-09       3.74749629e-07 
       2.80120709e-08       6.51259051e-09       4.12395699e-07 
       2.71410285e-08       6.51259054e-09       4.12395699e-07 
      -2.80158443e-08       6.51259106e-09       4.12395688e-07 
      -2.71448022e-08       6.51259104e-09       4.12395689e-07 
       2.80120709e-08       6.51259052e-09       4.12395699e-07 
       2.71410281e-08       6.51259052e-09       4.12395699e-07 
      -2.80158445e-08       6.51259105e-09       4.12395688e-07 
      -2.71448022e-08       6.51259105e-09       4.12395689e-07 
       2.90984215e-08       7.13091379e-09       4.51549680e-07 
       2.81935995e-08       7.13091379e-09       4.51549679e-07 
      -2.91022975e-08       7.13091432e-09       4.51549668e-07 
      -2.81974755e-08       7.13091432e-09       4.51549669e-07 
       2.90984215e-08       7.13091379e-09       4.51549680e-07 
       2.81935995e-08       7.13091379e-09       4.51549679e-07 
      -2.91022975e-08       7.13091432e-09       4.51549668e-07 
      -2.81974755e-08       7.13091432e-09       4.51549669e-07 
       3.01589393e-08       7.77247855e-09       4.92175379e-07 
       2.92211406e-08       7.77247855e-09       4.92175378e-07 
      -3.01629188e-08       7.77247906e-09       4.92175365e-07 
      -2.92251201e-08       7.77247906e-09       4.92175366e-07 
       3.01589393e-08       7.77247855e-09       4.92175379e-07 
       2.92211406e-08       7.77247855e-09       4.92175378e-07 
      -3.01629188e-08       7.77247906e-09       4.92175365e-07 
      -2.92251201e-08       7.77247906e-09       4.92175366e-07 
       3.11936241e-08       8.43672553e-09       5.34237379e-07 
       3.02236525e-08       8.43672553e-09       5.34237378e-07 
      -3.11977075e-08       8.43672605e-09       5.34237365e-07 
      -3.02277354e-08       8.43672605e-09       5.34237366e-07 
       3.11936241e-08       8.43672553e-09       5.34237379e-07 
       3.02236525e-08       8.43672553e-09       5.34237378e-07 
      -3.11977075e-08       8.43672605e-09       5.34237365e-07 
      -3.02277354e-08       8.43672605e-09       5.34237366e-07 
       3.22024754e-08       9.12309543e-09       5.77700265e-07 
       3.12011337e-08       9.12309543e-09       5.77700264e-07 
      -3.22066649e-08       9.12309595e-09       5.77700250e-07 
      -3.12053228e-08       9.12309595e-09       5.77700251e-07 
       3.22024754e-08       9.12309543e-09       5.77700265e-07 
       3.12011337e-08       9.12309543e-09       5.77700264e-07 
      -3.22066649e-08       9.12309595e-09       5.77700250e-07 
      -3.12053228e-08       9.12309595e-09       5.77700251e-07 
       3.31854935e-08       9.83102896e-09       6.22528622e-07 
       3.21535851e-08       9.83102896e-09       6.22528621e-07 
      -3.31897900e-08       9.83102949e-09       6.22528606e-07 
      -3.21578817e-08       9.83102949e-09       6.22528607e-07 
       3.31854935e-08       9.83102896e-09       6.22528622e-07 
       3.21535851e-08       9.83102896e-09       6.22528621e-07 
      -3.31897900e-08       9.83102949e-09       6.22528606e-07 
      -3.21578817e-08       9.83102949e-09       6.22528607e-07 
       3.41426785e-08       1.05599668e-08       6.68687033e-07 
       3.30810064e-08       1.05599668e-08       6.68687032e-07 
      -3.41470838e-08       1.05599674e-08       6.68687017e-07 
      -3.30854113e-08       1.05599674e-08       6.68687018e-07 
       3.41426785e-08       1.05599668e-08       6.68687033e-07 
       3.30810064e-08       1.05599668e-08       6.68687032e-07 
      -3.41470838e-08       1.05599674e-08       6.68687017e-07 
      -3.30854113e-08       1.05599674e-08       6.68687018e-07 
       3.50740303e-08       1.13093498e-08       7.16140084e-07 
       3.39833979e-08       1.13093498e-08       7.16140083e-07 
      -3.50785450e-08       1.13093503e-08       7.16140066e-07 
      -3.39879125e-08       1.13093503e-08       7.16140068e-07 
       3.50740303e-08       1.13093498e-08       7.16140084e-07 
       3.39833979e-08       1.13093498e-08       7.16140083e-07 
      -3.50785450e-08       1.13093503e-08       7.16140066e-07 
      -3.39879125e-08       1.13093503e-08       7.16140068e-07 
       3.59795500e-08       1.20786185e-08       7.64852358e-07 
       3.48607601e-08       1.20786185e-08       7.64852357e-07 
      -3.59841743e-08       1.20786190e-08       7.64852340e-07 
      -3.48653844e-08       1.20786190e-08       7.64852341e-07 
       3.59795500e-08       1.20786185e-08       7.64852358e-07 
       3.48607601e-08       1.20786185e-08       7.64852357e-07 
      -3.59841743e-08       1.20786190e-08       7.64852340e-07 
      -3.48653844e-08       1.20786190e-08       7.64852341e-07 
       3.68592357e-08       1.28672137e-08       8.14788440e-07 
       3.57130916e-08       1.28672137e-08       8.14788439e-07 
      -3.68639719e-08       1.28672142e-08       8.14788421e-07 
      -3.57178278e-08       1.28672142e-08       8.14788422e-07 
       3.68592357e-08       1.28672137e-08       8.14788440e-07 
       3.57130916e-08       1.28672137e-08       8.14788439e-07 
      -3.68639719e-08       1.28672142e-08       8.14788421e-07 
      -3.57178278e-08       1.28672142e-08       8.14788422e-07 
       3.77130878e-08       1.36745761e-08       8.65912915e-07 
       3.65403938e-08       1.36745761e-08       8.65912913e-07 
      -3.77179372e-08       1.36745766e-08       8.65912894e-07 
      -3.65452428e-08       1.36745766e-08       8.65912895e-07 
       3.77130878e-08       1.36745761e-08       8.65912915e-07 
       3.65403934e-08       1.36745761e-08       8.65912913e-07 
      -3.77179372e-08       1.36745767e-08       8.65912894e-07 
      -3.65452428e-08       1.36745766e-08       8.65912895e-07 
       3.85428485e-08       1.45001588e-08       9.18191152e-07 
       3.73443529e-08       1.45001589e-08       9.18191151e-07 
      -3.85477743e-08       1.45001594e-08       9.18191131e-07 
      -3.73492788e-08       1.45001594e-08       9.18191132e-07 
       3.85428485e-08       1.45001588e-08       9.18191152e-07 
       3.73443529e-08       1.45001589e-08       9.18191151e-07 
      -3.85477743e-08       1.45001594e-08       9.18191131e-07 
      -3.73492788e-08       1.45001594e-08       9.18191132e-07 
       3.93502200e-08       1.53434648e-08       9.71591673e-07 
       3.81266196e-08       1.53434648e-08       9.71591672e-07 
      -3.93552235e-08       1.53434653e-08       9.71591651e-07 
      -3.81316232e-08       1.53434653e-08       9.71591652e-07 
       3.93502200e-08       1.53434648e-08       9.71591673e-07 
       3.81266196e-08       1.53434648e-08       9.71591672e-07 
      -3.93552235e-08       1.53434653e-08       9.71591651e-07 
      -3.81316232e-08       1.53434653e-08       9.71591652e-07 
       4.01352032e-08       1.62040092e-08       1.02608378e-06 
       3.88871939e-08       1.62040092e-08       1.02608378e-06 
      -4.01402849e-08       1.62040097e-08       1.02608376e-06 
      -3.88922756e-08       1.62040097e-08       1.02608376e-06 
       4.01352032e-08       1.62040092e-08       1.02608378e-06 
       3.88871939e-08       1.62040092e-08       1.02608378e-06 
      -4.01402849e-08       1.62040097e-08       1.02608376e-06 
      -3.88922756e-08       1.62040097e-08       1.02608376e-06 
       4.08977971e-08       1.70813074e-08       1.08163679e-06 
       3.96260753e-08       1.70813074e-08       1.08163679e-06 
      -4.09029588e-08       1.70813079e-08       1.08163677e-06 
      -3.96312370e-08       1.70813079e-08       1.08163677e-06 
       4.08977971e-08       1.70813074e-08       1.08163679e-06 
       3.96260753e-08       1.70813074e-08       1.08163679e-06 
      -4.09029588e-08       1.70813079e-08       1.08163677e-06 
      -3.96312370e-08       1.70813079e-08       1.08163677e-06 
       4.16380024e-08       1.79748746e-08       1.13822000e-06 
       4.03432638e-08       1.79748747e-08       1.13822000e-06 
      -4.16432453e-08       1.79748752e-08       1.13821997e-06 
      -4.03485068e-08       1.79748751e-08       1.13821997e-06 
       4.16380024e-08       1.79748746e-08       1.13822000e-06 
       4.03432638e-08       1.79748747e-08       1.13822000e-06 
      -4.16432453e-08       1.79748752e-08       1.13821997e-06 
      -4.03485068e-08       1.79748751e-08       1.13821997e-06 
       4.23558189e-08       1.88842262e-08       1.19580271e-06 
       4.10387599e-08       1.88842262e-08       1.19580271e-06 
      -4.23611444e-08       1.88842267e-08       1.19580269e-06 
      -4.10440855e-08       1.88842266e-08       1.19580269e-06 
       4.23558189e-08       1.88842262e-08       1.19580271e-06 
       4.10387599e-08       1.88842262e-08       1.19580271e-06 
      -4.23611444e-08       1.88842267e-08       1.19580269e-06 
      -4.10440855e-08       1.88842266e-08       1.19580269e-06 
       4.30512466e-08       1.98088773e-08       1.25435425e-06 
       4.17125632e-08       1.98088774e-08       1.25435424e-06 
      -4.30566556e-08       1.98088779e-08       1.25435422e-06 
      -4.17179722e-08       1.98088778e-08       1.25435422e-06 
       4.30512466e-08       1.98088773e-08       1.25435425e-06 
       4.17125632e-08       1.98088774e-08       1.25435424e-06 
      -4.30566556e-08       1.98088779e-08       1.25435422e-06 
      -4.17179722e-08       1.98088778e-08       1.25435422e-06 
       4.37242860e-08       2.07483434e-08       1.31384390e-06 
       4.23646744e-08       2.07483435e-08       1.31384390e-06 
      -4.37297785e-08       2.07483440e-08       1.31384387e-06 
      -4.23701669e-08       2.07483439e-08       1.31384387e-06 
       4.37242860e-08       2.07483434e-08       1.31384390e-06 
       4.23646744e-08       2.07483435e-08       1.31384390e-06 