# vtk DataFile Version 2.0
./output/onsasExample_nonLinearCantileverBlade_staitc3D_no_pitch numElements=10/onsasExample_nonLinearCantileverBlade_staitc3D_no_pitch numElements=10_0029.vtk
ASCII
DATASET UNSTRUCTURED_GRID

POINTS 800 float
       1.665362e-24      -7.180703e-02      -7.180703e-02 
       2.199929e-24       7.180703e-02      -7.180703e-02 
      -1.665362e-24       7.180703e-02       7.180703e-02 
      -2.199929e-24      -7.180703e-02       7.180703e-02 
       1.000000e-01      -7.180703e-02      -7.180703e-02 
       1.000000e-01       7.180703e-02      -7.180703e-02 
       1.000000e-01       7.180703e-02       7.180703e-02 
       1.000000e-01      -7.180703e-02       7.180703e-02 
       1.000000e-01      -7.180703e-02      -7.180703e-02 
       1.000000e-01       7.180703e-02      -7.180703e-02 
       1.000000e-01       7.180703e-02       7.180703e-02 
       1.000000e-01      -7.180703e-02       7.180703e-02 
       2.000000e-01      -7.180703e-02      -7.180704e-02 
       2.000000e-01       7.180704e-02      -7.180704e-02 
       2.000000e-01       7.180704e-02       7.180703e-02 
       2.000000e-01      -7.180703e-02       7.180703e-02 
       2.000000e-01      -7.180703e-02      -7.180704e-02 
       2.000000e-01       7.180704e-02      -7.180704e-02 
       2.000000e-01       7.180704e-02       7.180703e-02 
       2.000000e-01      -7.180703e-02       7.180703e-02 
       3.000000e-01      -7.180703e-02      -7.180704e-02 
       3.000000e-01       7.180704e-02      -7.180704e-02 
       3.000000e-01       7.180704e-02       7.180702e-02 
       3.000000e-01      -7.180703e-02       7.180702e-02 
       3.000000e-01      -7.180703e-02      -7.180704e-02 
       3.000000e-01       7.180704e-02      -7.180704e-02 
       3.000000e-01       7.180704e-02       7.180702e-02 
       3.000000e-01      -7.180703e-02       7.180702e-02 
       4.000000e-01      -7.180702e-02      -7.180705e-02 
       4.000000e-01       7.180705e-02      -7.180705e-02 
       4.000000e-01       7.180705e-02       7.180702e-02 
       4.000000e-01      -7.180702e-02       7.180702e-02 
       4.000000e-01      -7.180702e-02      -7.180705e-02 
       4.000000e-01       7.180705e-02      -7.180705e-02 
       4.000000e-01       7.180705e-02       7.180702e-02 
       4.000000e-01      -7.180702e-02       7.180702e-02 
       5.000000e-01      -7.180701e-02      -7.180706e-02 
       5.000000e-01       7.180705e-02      -7.180706e-02 
       5.000000e-01       7.180705e-02       7.180701e-02 
       5.000000e-01      -7.180701e-02       7.180701e-02 
       5.000000e-01      -7.180701e-02      -7.180706e-02 
       5.000000e-01       7.180705e-02      -7.180706e-02 
       5.000000e-01       7.180705e-02       7.180701e-02 
       5.000000e-01      -7.180701e-02       7.180701e-02 
       6.000000e-01      -7.180701e-02      -7.180707e-02 
       6.000000e-01       7.180706e-02      -7.180707e-02 
       6.000000e-01       7.180706e-02       7.180700e-02 
       6.000000e-01      -7.180701e-02       7.180700e-02 
       6.000000e-01      -7.180701e-02      -7.180707e-02 
       6.000000e-01       7.180706e-02      -7.180707e-02 
       6.000000e-01       7.180706e-02       7.180700e-02 
       6.000000e-01      -7.180701e-02       7.180700e-02 
       7.000000e-01      -7.180700e-02      -7.180708e-02 
       7.000000e-01       7.180707e-02      -7.180708e-02 
       7.000000e-01       7.180707e-02       7.180698e-02 
       7.000000e-01      -7.180700e-02       7.180698e-02 
       7.000000e-01      -7.180700e-02      -7.180708e-02 
       7.000000e-01       7.180707e-02      -7.180708e-02 
       7.000000e-01       7.180707e-02       7.180698e-02 
       7.000000e-01      -7.180700e-02       7.180698e-02 
       8.000000e-01      -7.180699e-02      -7.180710e-02 
       8.000000e-01       7.180708e-02      -7.180710e-02 
       8.000000e-01       7.180708e-02       7.180697e-02 
       8.000000e-01      -7.180699e-02       7.180697e-02 
       8.000000e-01      -7.180699e-02      -7.180710e-02 
       8.000000e-01       7.180708e-02      -7.180710e-02 
       8.000000e-01       7.180708e-02       7.180697e-02 
       8.000000e-01      -7.180699e-02       7.180697e-02 
       9.000000e-01      -7.180697e-02      -7.180711e-02 
       9.000000e-01       7.180709e-02      -7.180711e-02 
       9.000000e-01       7.180709e-02       7.180695e-02 
       9.000000e-01      -7.180697e-02       7.180695e-02 
       9.000000e-01      -7.180697e-02      -7.180711e-02 
       9.000000e-01       7.180709e-02      -7.180711e-02 
       9.000000e-01       7.180709e-02       7.180695e-02 
       9.000000e-01      -7.180697e-02       7.180695e-02 
       1.000000e+00      -7.180696e-02      -7.180713e-02 
       1.000000e+00       7.180711e-02      -7.180713e-02 
       1.000000e+00       7.180711e-02       7.180693e-02 
       1.000000e+00      -7.180696e-02       7.180693e-02 
       1.000000e+00      -7.180696e-02      -7.180713e-02 
       1.000000e+00       7.180711e-02      -7.180713e-02 
       1.000000e+00       7.180711e-02       7.180693e-02 
       1.000000e+00      -7.180696e-02       7.180693e-02 
       1.100000e+00      -7.180695e-02      -7.180715e-02 
       1.100000e+00       7.180712e-02      -7.180715e-02 
       1.100000e+00       7.180712e-02       7.180691e-02 
       1.100000e+00      -7.180695e-02       7.180691e-02 
       1.100000e+00      -7.180695e-02      -7.180715e-02 
       1.100000e+00       7.180712e-02      -7.180715e-02 
       1.100000e+00       7.180712e-02       7.180691e-02 
       1.100000e+00      -7.180695e-02       7.180691e-02 
       1.200000e+00      -7.180693e-02      -7.180717e-02 
       1.200000e+00       7.180714e-02      -7.180717e-02 
       1.200000e+00       7.180714e-02       7.180689e-02 
       1.200000e+00      -7.180693e-02       7.180689e-02 
       1.200000e+00      -7.180693e-02      -7.180717e-02 
       1.200000e+00       7.180714e-02      -7.180717e-02 
       1.200000e+00       7.180714e-02       7.180689e-02 
       1.200000e+00      -7.180693e-02       7.180689e-02 
       1.300000e+00      -7.180691e-02      -7.180720e-02 
       1.300000e+00       7.180715e-02      -7.180720e-02 
       1.300000e+00       7.180715e-02       7.180687e-02 
       1.300000e+00      -7.180691e-02       7.180687e-02 
       1.300000e+00      -7.180691e-02      -7.180720e-02 
       1.300000e+00       7.180715e-02      -7.180720e-02 
       1.300000e+00       7.180715e-02       7.180687e-02 
       1.300000e+00      -7.180691e-02       7.180687e-02 
       1.400000e+00      -7.180689e-02      -7.180722e-02 
       1.400000e+00       7.180717e-02      -7.180722e-02 
       1.400000e+00       7.180717e-02       7.180684e-02 
       1.400000e+00      -7.180689e-02       7.180684e-02 
       1.400000e+00      -7.180689e-02      -7.180722e-02 
       1.400000e+00       7.180717e-02      -7.180722e-02 
       1.400000e+00       7.180717e-02       7.180684e-02 
       1.400000e+00      -7.180689e-02       7.180684e-02 
       1.500000e+00      -7.180688e-02      -7.180725e-02 
       1.500000e+00       7.180719e-02      -7.180725e-02 
       1.500000e+00       7.180719e-02       7.180682e-02 
       1.500000e+00      -7.180688e-02       7.180682e-02 
       1.500000e+00      -7.180688e-02      -7.180725e-02 
       1.500000e+00       7.180719e-02      -7.180725e-02 
       1.500000e+00       7.180719e-02       7.180682e-02 
       1.500000e+00      -7.180688e-02       7.180682e-02 
       1.600000e+00      -7.180685e-02      -7.180728e-02 
       1.600000e+00       7.180721e-02      -7.180728e-02 
       1.600000e+00       7.180721e-02       7.180679e-02 
       1.600000e+00      -7.180685e-02       7.180679e-02 
       1.600000e+00      -7.180685e-02      -7.180728e-02 
       1.600000e+00       7.180721e-02      -7.180728e-02 
       1.600000e+00       7.180721e-02       7.180679e-02 
       1.600000e+00      -7.180685e-02       7.180679e-02 
       1.700000e+00      -7.180683e-02      -7.180731e-02 
       1.700000e+00       7.180723e-02      -7.180731e-02 
       1.700000e+00       7.180723e-02       7.180676e-02 
       1.700000e+00      -7.180683e-02       7.180676e-02 
       1.700000e+00      -7.180683e-02      -7.180731e-02 
       1.700000e+00       7.180723e-02      -7.180731e-02 
       1.700000e+00       7.180723e-02       7.180676e-02 
       1.700000e+00      -7.180683e-02       7.180676e-02 
       1.800000e+00      -7.180681e-02      -7.180734e-02 
       1.800000e+00       7.180726e-02      -7.180734e-02 
       1.800000e+00       7.180726e-02       7.180673e-02 
       1.800000e+00      -7.180681e-02       7.180673e-02 
       1.800000e+00      -7.180681e-02      -7.180734e-02 
       1.800000e+00       7.180726e-02      -7.180734e-02 
       1.800000e+00       7.180726e-02       7.180673e-02 
       1.800000e+00      -7.180681e-02       7.180673e-02 
       1.900000e+00      -7.180679e-02      -7.180737e-02 
       1.900000e+00       7.180728e-02      -7.180737e-02 
       1.900000e+00       7.180728e-02       7.180669e-02 
       1.900000e+00      -7.180679e-02       7.180669e-02 
       1.900000e+00      -7.180679e-02      -7.180737e-02 
       1.900000e+00       7.180728e-02      -7.180737e-02 
       1.900000e+00       7.180728e-02       7.180669e-02 
       1.900000e+00      -7.180679e-02       7.180669e-02 
       2.000000e+00      -7.180676e-02      -7.180741e-02 
       2.000000e+00       7.180730e-02      -7.180741e-02 
       2.000000e+00       7.180730e-02       7.180666e-02 
       2.000000e+00      -7.180676e-02       7.180666e-02 
       2.000000e+00      -7.180676e-02      -7.180741e-02 
       2.000000e+00       7.180730e-02      -7.180741e-02 
       2.000000e+00       7.180730e-02       7.180666e-02 
       2.000000e+00      -7.180676e-02       7.180666e-02 
       2.100000e+00      -7.180674e-02      -7.180744e-02 
[...]
POINT_DATA       800 
VECTORS Displacements float
       1.66536166e-24      -1.38777878e-17       0.00000000e+00 
       2.19992871e-24       0.00000000e+00       0.00000000e+00 
      -1.66536166e-24       1.38777878e-17       0.00000000e+00 
      -2.19992871e-24       0.00000000e+00       0.00000000e+00 
      -4.15570120e-10       7.70030012e-10      -1.05967214e-09 
      -2.62025027e-09       7.70029998e-10      -1.05967046e-09 
       4.13707804e-10       7.70028374e-10      -1.05967049e-09 
       2.61838795e-09       7.70028374e-10      -1.05967217e-09 
      -4.15570120e-10       7.70030012e-10      -1.05967214e-09 
      -2.62025027e-09       7.70029998e-10      -1.05967046e-09 
       4.13707804e-10       7.70028374e-10      -1.05967049e-09 
       2.61838795e-09       7.70028374e-10      -1.05967217e-09 
      -8.23173474e-10       3.06045368e-09      -4.21162540e-09 
      -5.19017179e-09       3.06045364e-09      -4.21162200e-09 
       8.19448204e-10       3.06045042e-09      -4.21162211e-09 
       5.18644652e-09       3.06045048e-09      -4.21162549e-09 
      -8.23173474e-10       3.06045368e-09      -4.21162540e-09 
      -5.19017179e-09       3.06045364e-09      -4.21162200e-09 
       8.19448204e-10       3.06045042e-09      -4.21162211e-09 
       5.18644652e-09       3.06045048e-09      -4.21162549e-09 
      -1.22281002e-09       6.84177395e-09      -9.41526750e-09 
      -7.70976460e-09       6.84177383e-09      -9.41526235e-09 
       1.21722116e-09       6.84176905e-09      -9.41526260e-09 
       7.70417574e-09       6.84176918e-09      -9.41526776e-09 
      -1.22281002e-09       6.84177395e-09      -9.41526750e-09 
      -7.70976460e-09       6.84177383e-09      -9.41526235e-09 
       1.21722116e-09       6.84176905e-09      -9.41526260e-09 
       7.70417574e-09       6.84176918e-09      -9.41526776e-09 
      -1.61447977e-09       1.20844937e-08      -1.66300062e-08 
      -1.01790286e-08       1.20844934e-08      -1.66299993e-08 
       1.60702673e-09       1.20844872e-08      -1.66299997e-08 
       1.01715755e-08       1.20844874e-08      -1.66300067e-08 
      -1.61447977e-09       1.20844937e-08      -1.66300062e-08 
      -1.01790286e-08       1.20844934e-08      -1.66299993e-08 
       1.60702673e-09       1.20844872e-08      -1.66299997e-08 
       1.01715755e-08       1.20844874e-08      -1.66300067e-08 
      -1.99818267e-09       1.87591158e-08      -2.58152493e-08 
      -1.25979638e-08       1.87591155e-08      -2.58152405e-08 
       1.98886485e-09       1.87591077e-08      -2.58152413e-08 
       1.25886459e-08       1.87591081e-08      -2.58152501e-08 
      -1.99818267e-09       1.87591158e-08      -2.58152493e-08 
      -1.25979638e-08       1.87591155e-08      -2.58152405e-08 
       1.98886485e-09       1.87591077e-08      -2.58152413e-08 
       1.25886459e-08       1.87591081e-08      -2.58152501e-08 
      -2.37391895e-09       2.68361433e-08      -3.69304046e-08 
      -1.49665703e-08       2.68361428e-08      -3.69303939e-08 
       2.36273556e-09       2.68361336e-08      -3.69303949e-08 
       1.49553869e-08       2.68361341e-08      -3.69304056e-08 
      -2.37391895e-09       2.68361433e-08      -3.69304046e-08 
      -1.49665703e-08       2.68361428e-08      -3.69303939e-08 
       2.36273556e-09       2.68361336e-08      -3.69303949e-08 
       1.49553869e-08       2.68361341e-08      -3.69304056e-08 
      -2.74168821e-09       3.62860790e-08      -4.99348797e-08 
      -1.72848480e-08       3.62860783e-08      -4.99348671e-08 
       2.72863887e-09       3.62860677e-08      -4.99348685e-08 
       1.72717987e-08       3.62860684e-08      -4.99348811e-08 
      -2.74168821e-09       3.62860790e-08      -4.99348797e-08 
      -1.72848480e-08       3.62860783e-08      -4.99348671e-08 
       2.72863887e-09       3.62860677e-08      -4.99348685e-08 
       1.72717987e-08       3.62860684e-08      -4.99348811e-08 
      -3.10149062e-09       4.70794259e-08      -6.47880824e-08 
      -1.95527968e-08       4.70794249e-08      -6.47880679e-08 
       3.08657488e-09       4.70794130e-08      -6.47880697e-08 
       1.95378811e-08       4.70794139e-08      -6.47880842e-08 
      -3.10149062e-09       4.70794259e-08      -6.47880824e-08 
      -1.95527968e-08       4.70794249e-08      -6.47880679e-08 
       3.08657488e-09       4.70794130e-08      -6.47880697e-08 
       1.95378811e-08       4.70794139e-08      -6.47880842e-08 
      -3.45332629e-09       5.91866868e-08      -8.14494206e-08 
      -2.17704168e-08       5.91866856e-08      -8.14494041e-08 
       3.43654361e-09       5.91866723e-08      -8.14494062e-08 
       2.17536341e-08       5.91866735e-08      -8.14494228e-08 
      -3.45332629e-09       5.91866868e-08      -8.14494206e-08 
      -2.17704168e-08       5.91866856e-08      -8.14494041e-08 
       3.43654361e-09       5.91866723e-08      -8.14494062e-08 
       2.17536341e-08       5.91866735e-08      -8.14494228e-08 
      -3.79719500e-09       7.25783646e-08      -9.98783018e-08 
      -2.39377081e-08       7.25783632e-08      -9.98782833e-08 
       3.77854459e-09       7.25783486e-08      -9.98782860e-08 
       2.39190576e-08       7.25783500e-08      -9.98783045e-08 
      -3.79719511e-09       7.25783646e-08      -9.98783018e-08 
      -2.39377081e-08       7.25783632e-08      -9.98782833e-08 
       3.77854459e-09       7.25783487e-08      -9.98782860e-08 
       2.39190578e-08       7.25783501e-08      -9.98783045e-08 
      -4.13318246e-09       8.72254796e-08      -1.20034846e-07 
      -2.60569857e-08       8.72254779e-08      -1.20034826e-07 
       4.11333168e-09       8.72254627e-08      -1.20034829e-07 
       2.60371349e-08       8.72254644e-08      -1.20034849e-07 
      -4.13318246e-09       8.72254796e-08      -1.20034846e-07 
      -2.60569857e-08       8.72254779e-08      -1.20034826e-07 
       4.11333168e-09       8.72254627e-08      -1.20034829e-07 
       2.60371349e-08       8.72254644e-08      -1.20034849e-07 
      -4.46204207e-09       1.03101122e-07      -1.41882021e-07 
      -2.81312325e-08       1.03101120e-07      -1.41882000e-07 
       4.44098980e-09       1.03101105e-07      -1.41882004e-07 
       2.81101802e-08       1.03101106e-07      -1.41882025e-07 
      -4.46204207e-09       1.03101122e-07      -1.41882021e-07 
      -2.81312325e-08       1.03101120e-07      -1.41882000e-07 
       4.44098980e-09       1.03101105e-07      -1.41882004e-07 
       2.81101802e-08       1.03101106e-07      -1.41882025e-07 
      -4.78377382e-09       1.20178901e-07      -1.65383509e-07 
      -3.01604488e-08       1.20178898e-07      -1.65383486e-07 
       4.76151851e-09       1.20178882e-07      -1.65383491e-07 
       3.01381935e-08       1.20178884e-07      -1.65383513e-07 
      -4.78377382e-09       1.20178901e-07      -1.65383509e-07 
      -3.01604488e-08       1.20178898e-07      -1.65383486e-07 
       4.76151851e-09       1.20178882e-07      -1.65383491e-07 
       3.01381935e-08       1.20178884e-07      -1.65383513e-07 
      -5.09837772e-09       1.38432422e-07      -1.90502989e-07 
      -3.21446343e-08       1.38432420e-07      -1.90502965e-07 
       5.07491826e-09       1.38432403e-07      -1.90502970e-07 
       3.21211746e-08       1.38432405e-07      -1.90502994e-07 
      -5.09837772e-09       1.38432422e-07      -1.90502989e-07 
      -3.21446343e-08       1.38432420e-07      -1.90502965e-07 
       5.07491826e-09       1.38432403e-07      -1.90502970e-07 
       3.21211746e-08       1.38432405e-07      -1.90502994e-07 
      -5.40585421e-09       1.57835296e-07      -2.17204143e-07 
      -3.40837896e-08       1.57835293e-07      -2.17204118e-07 
       5.38118861e-09       1.57835275e-07      -2.17204123e-07 
       3.40591240e-08       1.57835278e-07      -2.17204148e-07 
      -5.40585421e-09       1.57835296e-07      -2.17204143e-07 
      -3.40837896e-08       1.57835293e-07      -2.17204118e-07 
       5.38118861e-09       1.57835275e-07      -2.17204123e-07 
       3.40591240e-08       1.57835278e-07      -2.17204148e-07 
      -5.70620262e-09       1.78361128e-07      -2.45450651e-07 
      -3.59779140e-08       1.78361125e-07      -2.45450624e-07 
       5.68032998e-09       1.78361107e-07      -2.45450630e-07 
       3.59520413e-08       1.78361110e-07      -2.45450657e-07 
      -5.70620262e-09       1.78361128e-07      -2.45450651e-07 
      -3.59779140e-08       1.78361125e-07      -2.45450624e-07 
       5.68032998e-09       1.78361107e-07      -2.45450630e-07 
       3.59520413e-08       1.78361110e-07      -2.45450657e-07 
      -5.99942318e-09       1.99983527e-07      -2.75206193e-07 
      -3.78270080e-08       1.99983524e-07      -2.75206165e-07 
       5.97234240e-09       1.99983506e-07      -2.75206171e-07 
       3.77999270e-08       1.99983509e-07      -2.75206199e-07 
      -5.99942318e-09       1.99983527e-07      -2.75206193e-07 
      -3.78270080e-08       1.99983524e-07      -2.75206165e-07 
       5.97234240e-09       1.99983506e-07      -2.75206171e-07 
       3.77999270e-08       1.99983509e-07      -2.75206199e-07 
      -6.28551589e-09       2.22676102e-07      -3.06434450e-07 
      -3.96310711e-08       2.22676098e-07      -3.06434421e-07 
       6.25722563e-09       2.22676079e-07      -3.06434428e-07 
       3.96027806e-08       2.22676083e-07      -3.06434458e-07 
      -6.28551589e-09       2.22676102e-07      -3.06434450e-07 
      -3.96310711e-08       2.22676098e-07      -3.06434421e-07 
       6.25722563e-09       2.22676079e-07      -3.06434428e-07 
       3.96027806e-08       2.22676083e-07      -3.06434458e-07 
      -6.56448074e-09       2.46412459e-07      -3.39099104e-07 
      -4.13901033e-08       2.46412455e-07      -3.39099073e-07 
       6.53497967e-09       2.46412436e-07      -3.39099081e-07 
       4.13606025e-08       2.46412440e-07      -3.39099112e-07 
      -6.56448074e-09       2.46412459e-07      -3.39099104e-07 
      -4.13901033e-08       2.46412455e-07      -3.39099073e-07 
       6.53497967e-09       2.46412436e-07      -3.39099081e-07 
       4.13606025e-08       2.46412440e-07      -3.39099112e-07 
      -6.83631773e-09       2.71166207e-07      -3.73163834e-07 
      -4.31041052e-08       2.71166203e-07      -3.73163801e-07 
       6.80560497e-09       2.71166183e-07      -3.73163810e-07 
       4.30733920e-08       2.71166188e-07      -3.73163842e-07 
      -6.83631773e-09       2.71166207e-07      -3.73163834e-07 
      -4.31041050e-08       2.71166203e-07      -3.73163801e-07 
       6.80560497e-09       2.71166183e-07      -3.73163810e-07 
       4.30733924e-08       2.71166188e-07      -3.73163842e-07 
      -7.10121117e-09       2.96911471e-07      -4.08593033e-07 
      -4.47754904e-08       2.96911466e-07      -4.08592999e-07 
       7.06975500e-09       2.96911447e-07      -4.08593009e-07 
       4.47440338e-08       2.96911452e-07      -4.08593042e-07 
      -7.10121117e-09       2.96911471e-07      -4.08593033e-07 
      -4.47754904e-08       2.96911466e-07      -4.08592999e-07 
       7.06975500e-09       2.96911447e-07      -4.08593009e-07 
       4.47440338e-08       2.96911452e-07      -4.08593042e-07 
      -7.35981587e-09       3.23624447e-07      -4.45353942e-07 
      -4.64071430e-08       3.23624441e-07      -4.45353908e-07 
       7.32761452e-09       3.23624422e-07      -4.45353918e-07 
       4.63749412e-08       3.23624427e-07      -4.45353952e-07 
      -7.35981587e-09       3.23624447e-07      -4.45353942e-07 
      -4.64071430e-08       3.23624441e-07      -4.45353908e-07 
       7.32761452e-09       3.23624422e-07      -4.45353918e-07 
       4.63749412e-08       3.23624427e-07      -4.45353952e-07 
      -7.61213137e-09       3.51281846e-07      -4.83414516e-07 
      -4.79990625e-08       3.51281841e-07      -4.83414480e-07 
       7.57918395e-09       3.51281821e-07      -4.83414491e-07 
       4.79661146e-08       3.51281827e-07      -4.83414526e-07 
      -7.61213137e-09       3.51281846e-07      -4.83414516e-07 
      -4.79990625e-08       3.51281841e-07      -4.83414480e-07 
       7.57918395e-09       3.51281821e-07      -4.83414491e-07 
       4.79661146e-08       3.51281827e-07      -4.83414526e-07 
      -7.85815812e-09       3.79860383e-07      -5.22742707e-07 
      -4.95512498e-08       3.79860377e-07      -5.22742670e-07 
       7.82446197e-09       3.79860357e-07      -5.22742682e-07 
       4.95175536e-08       3.79860363e-07      -5.22742718e-07 
      -7.85815812e-09       3.79860383e-07      -5.22742707e-07 
      -4.95512498e-08       3.79860377e-07      -5.22742670e-07 
       7.82446197e-09       3.79860357e-07      -5.22742682e-07 
       4.95175536e-08       3.79860363e-07      -5.22742718e-07 
      -8.09789569e-09       4.09336770e-07      -5.63306469e-07 
      -5.10637044e-08       4.09336763e-07      -5.63306431e-07 
       8.06344946e-09       4.09336743e-07      -5.63306444e-07 
       5.10292582e-08       4.09336750e-07      -5.63306481e-07 
      -8.09789569e-09       4.09336770e-07      -5.63306469e-07 
      -5.10637044e-08       4.09336763e-07      -5.63306431e-07 
       8.06344946e-09       4.09336743e-07      -5.63306444e-07 
       5.10292582e-08       4.09336750e-07      -5.63306481e-07 
      -8.33134450e-09       4.39687719e-07      -6.05073756e-07 
      -5.25364263e-08       4.39687712e-07      -6.05073717e-07 
       8.29614644e-09       4.39687692e-07      -6.05073730e-07 
       5.25012283e-08       4.39687699e-07      -6.05073768e-07 
      -8.33134450e-09       4.39687719e-07      -6.05073756e-07 
      -5.25364263e-08       4.39687712e-07      -6.05073717e-07 
       8.29614644e-09       4.39687692e-07      -6.05073730e-07 
       5.25012283e-08       4.39687699e-07      -6.05073768e-07 
      -8.55850413e-09       4.70889944e-07      -6.48012520e-07 
      -5.39694156e-08       4.70889937e-07      -6.48012481e-07 
       8.52255289e-09       4.70889917e-07      -6.48012494e-07 
       5.39334644e-08       4.70889924e-07      -6.48012534e-07 
      -8.55850413e-09       4.70889944e-07      -6.48012520e-07 
      -5.39694156e-08       4.70889937e-07      -6.48012481e-07 
       8.52255289e-09       4.70889917e-07      -6.48012494e-07 
       5.39334644e-08       4.70889924e-07      -6.48012534e-07 
      -8.77937367e-09       5.02920157e-07      -6.92090717e-07 
      -5.53626709e-08       5.02920150e-07      -6.92090676e-07 
       8.74266970e-09       5.02920130e-07      -6.92090690e-07 
       5.53259669e-08       5.02920137e-07      -6.92090731e-07 
      -8.77937367e-09       5.02920157e-07      -6.92090717e-07 
      -5.53626709e-08       5.02920150e-07      -6.92090676e-07 
       8.74266970e-09       5.02920130e-07      -6.92090690e-07 
       5.53259669e-08       5.02920137e-07      -6.92090731e-07 
      -8.99395491e-09       5.35755072e-07      -7.37276298e-07 
      -5.67161949e-08       5.35755064e-07      -7.37276256e-07 
       8.95649466e-09       5.35755044e-07      -7.37276271e-07 
       5.66787346e-08       5.35755052e-07      -7.37276313e-07 
      -8.99395491e-09       5.35755072e-07      -7.37276298e-07 
      -5.67161949e-08       5.35755064e-07      -7.37276256e-07 
       8.95649466e-09       5.35755044e-07      -7.37276271e-07 
       5.66787346e-08       5.35755052e-07      -7.37276313e-07 
      -9.20224696e-09       5.69371400e-07      -7.83537217e-07 
      -5.80299853e-08       5.69371392e-07      -7.83537175e-07 
       9.16402954e-09       5.69371372e-07      -7.83537191e-07 
       5.79917678e-08       5.69371380e-07      -7.83537233e-07 
      -9.20224696e-09       5.69371400e-07      -7.83537217e-07 
      -5.80299857e-08       5.69371392e-07      -7.83537175e-07 
       9.16402954e-09       5.69371372e-07      -7.83537191e-07 
       5.79917683e-08       5.69371380e-07      -7.83537233e-07 
      -9.40451184e-09       6.03746373e-07      -8.30842141e-07 
      -5.93065348e-08       6.03746364e-07      -8.30842098e-07 
       9.36585121e-09       6.03746345e-07      -8.30842114e-07 
       5.92678742e-08       6.03746353e-07      -8.30842158e-07 
      -9.40451184e-09       6.03746373e-07      -8.30842141e-07 
      -5.93065348e-08       6.03746364e-07      -8.30842098e-07 
       9.36585121e-09       6.03746345e-07      -8.30842114e-07 
       5.92678742e-08       6.03746353e-07      -8.30842158e-07 
      -9.60132596e-09       6.38859290e-07      -8.79162583e-07 
      -6.05486492e-08       6.38859281e-07      -8.79162539e-07 
       9.56222035e-09       6.38859262e-07      -8.79162556e-07 
       6.05095436e-08       6.38859271e-07      -8.79162600e-07 
      -9.60132596e-09       6.38859290e-07      -8.79162583e-07 
      -6.05486492e-08       6.38859281e-07      -8.79162539e-07 
       9.56222035e-09       6.38859262e-07      -8.79162556e-07 
       6.05095436e-08       6.38859271e-07      -8.79162600e-07 
      -9.79268977e-09       6.74689970e-07      -9.28470770e-07 
      -6.17563281e-08       6.74689961e-07      -9.28470725e-07 
       9.75313830e-09       6.74689942e-07      -9.28470743e-07 
       6.17167770e-08       6.74689951e-07      -9.28470788e-07 
      -9.79268977e-09       6.74689970e-07      -9.28470770e-07 
      -6.17563281e-08       6.74689961e-07      -9.28470725e-07 
       9.75313830e-09       6.74689942e-07      -9.28470743e-07 
       6.17167770e-08       6.74689951e-07      -9.28470788e-07 
      -9.97860328e-09       7.11218230e-07      -9.78738928e-07 
      -6.29295727e-08       7.11218220e-07      -9.78738882e-07 
       9.93860372e-09       7.11218202e-07      -9.78738901e-07 
       6.28895735e-08       7.11218211e-07      -9.78738946e-07 
      -9.97860328e-09       7.11218230e-07      -9.78738928e-07 
      -6.29295727e-08       7.11218220e-07      -9.78738882e-07 
       9.93860372e-09       7.11218202e-07      -9.78738901e-07 
       6.28895735e-08       7.11218211e-07      -9.78738946e-07 
      -1.01590665e-08       7.48423888e-07      -1.02993928e-06 
      -6.40683826e-08       7.48423878e-07      -1.02993924e-06 
       1.01186175e-08       7.48423859e-07      -1.02993926e-06 
       6.40279336e-08       7.48423870e-07      -1.02993930e-06 
      -1.01590665e-08       7.48423888e-07      -1.02993928e-06 
      -6.40683826e-08       7.48423878e-07      -1.02993924e-06 
       1.01186175e-08       7.48423859e-07      -1.02993926e-06 
       6.40279336e-08       7.48423870e-07      -1.02993930e-06 
      -1.03340789e-08       7.86286762e-07      -1.08204406e-06 
      -6.51727570e-08       7.86286751e-07      -1.08204402e-06 
       1.02931788e-08       7.86286733e-07      -1.08204403e-06 
       6.51318572e-08       7.86286744e-07      -1.08204408e-06 
      -1.03340789e-08       7.86286762e-07      -1.08204406e-06 
      -6.51727570e-08       7.86286751e-07      -1.08204402e-06 
       1.02931788e-08       7.86286733e-07      -1.08204403e-06 
       6.51318572e-08       7.86286744e-07      -1.08204408e-06 
      -1.05036411e-08       8.24786669e-07      -1.13502549e-06 
      -6.62426967e-08       8.24786658e-07      -1.13502544e-06 
       1.04622888e-08       8.24786640e-07      -1.13502546e-06 
       6.62013444e-08       8.24786651e-07      -1.13502551e-06 
      -1.05036411e-08       8.24786669e-07      -1.13502549e-06 
      -6.62426967e-08       8.24786658e-07      -1.13502544e-06 
       1.04622888e-08       8.24786640e-07      -1.13502546e-06 
       6.62013444e-08       8.24786651e-07      -1.13502551e-06 
      -1.06677520e-08       8.63903428e-07      -1.18885580e-06 
      -6.72782008e-08       8.63903417e-07      -1.18885575e-06 
       1.06259472e-08       8.63903399e-07      -1.18885577e-06 
       6.72363960e-08       8.63903410e-07      -1.18885582e-06 
      -1.06677520e-08       8.63903428e-07      -1.18885580e-06 
      -6.72782008e-08       8.63903417e-07      -1.18885575e-06 