# vtk DataFile Version 2.0
./output/onsasExample_nonLinearCantileverBlade_staitc3D_no_pitch numElements=10/onsasExample_nonLinearCantileverBlade_staitc3D_no_pitch numElements=10_0014.vtk
ASCII
DATASET UNSTRUCTURED_GRID

POINTS 800 float
       7.370383e-25      -7.180703e-02      -7.180703e-02 
      -1.033208e-24       7.180703e-02      -7.180703e-02 
      -7.370383e-25       7.180703e-02       7.180703e-02 
       1.033208e-24      -7.180703e-02       7.180703e-02 
       1.000000e-01      -7.180703e-02      -7.180703e-02 
       1.000000e-01       7.180703e-02      -7.180703e-02 
       1.000000e-01       7.180703e-02       7.180704e-02 
       1.000000e-01      -7.180703e-02       7.180704e-02 
       1.000000e-01      -7.180703e-02      -7.180703e-02 
       1.000000e-01       7.180703e-02      -7.180703e-02 
       1.000000e-01       7.180703e-02       7.180704e-02 
       1.000000e-01      -7.180703e-02       7.180704e-02 
       2.000000e-01      -7.180703e-02      -7.180702e-02 
       2.000000e-01       7.180703e-02      -7.180702e-02 
       2.000000e-01       7.180703e-02       7.180704e-02 
       2.000000e-01      -7.180703e-02       7.180704e-02 
       2.000000e-01      -7.180703e-02      -7.180702e-02 
       2.000000e-01       7.180703e-02      -7.180702e-02 
       2.000000e-01       7.180703e-02       7.180704e-02 
       2.000000e-01      -7.180703e-02       7.180704e-02 
       3.000000e-01      -7.180703e-02      -7.180701e-02 
       3.000000e-01       7.180703e-02      -7.180701e-02 
       3.000000e-01       7.180703e-02       7.180705e-02 
       3.000000e-01      -7.180703e-02       7.180705e-02 
       3.000000e-01      -7.180703e-02      -7.180701e-02 
       3.000000e-01       7.180703e-02      -7.180701e-02 
       3.000000e-01       7.180703e-02       7.180705e-02 
       3.000000e-01      -7.180703e-02       7.180705e-02 
       4.000000e-01      -7.180703e-02      -7.180700e-02 
       4.000000e-01       7.180703e-02      -7.180700e-02 
       4.000000e-01       7.180703e-02       7.180707e-02 
       4.000000e-01      -7.180703e-02       7.180707e-02 
       4.000000e-01      -7.180703e-02      -7.180700e-02 
       4.000000e-01       7.180703e-02      -7.180700e-02 
       4.000000e-01       7.180703e-02       7.180707e-02 
       4.000000e-01      -7.180703e-02       7.180707e-02 
       5.000000e-01      -7.180703e-02      -7.180697e-02 
       5.000000e-01       7.180703e-02      -7.180697e-02 
       5.000000e-01       7.180703e-02       7.180709e-02 
       5.000000e-01      -7.180703e-02       7.180709e-02 
       5.000000e-01      -7.180703e-02      -7.180697e-02 
       5.000000e-01       7.180703e-02      -7.180697e-02 
       5.000000e-01       7.180703e-02       7.180709e-02 
       5.000000e-01      -7.180703e-02       7.180709e-02 
       6.000000e-01      -7.180703e-02      -7.180695e-02 
       6.000000e-01       7.180704e-02      -7.180695e-02 
       6.000000e-01       7.180704e-02       7.180712e-02 
       6.000000e-01      -7.180703e-02       7.180712e-02 
       6.000000e-01      -7.180703e-02      -7.180695e-02 
       6.000000e-01       7.180704e-02      -7.180695e-02 
       6.000000e-01       7.180704e-02       7.180712e-02 
       6.000000e-01      -7.180703e-02       7.180712e-02 
       7.000000e-01      -7.180703e-02      -7.180692e-02 
       7.000000e-01       7.180704e-02      -7.180692e-02 
       7.000000e-01       7.180704e-02       7.180715e-02 
       7.000000e-01      -7.180703e-02       7.180715e-02 
       7.000000e-01      -7.180703e-02      -7.180692e-02 
       7.000000e-01       7.180704e-02      -7.180692e-02 
       7.000000e-01       7.180704e-02       7.180715e-02 
       7.000000e-01      -7.180703e-02       7.180715e-02 
       8.000000e-01      -7.180703e-02      -7.180689e-02 
       8.000000e-01       7.180704e-02      -7.180689e-02 
       8.000000e-01       7.180704e-02       7.180718e-02 
       8.000000e-01      -7.180703e-02       7.180718e-02 
       8.000000e-01      -7.180703e-02      -7.180689e-02 
       8.000000e-01       7.180704e-02      -7.180689e-02 
       8.000000e-01       7.180704e-02       7.180718e-02 
       8.000000e-01      -7.180703e-02       7.180718e-02 
       9.000000e-01      -7.180703e-02      -7.180685e-02 
       9.000000e-01       7.180704e-02      -7.180685e-02 
       9.000000e-01       7.180704e-02       7.180722e-02 
       9.000000e-01      -7.180703e-02       7.180722e-02 
       9.000000e-01      -7.180703e-02      -7.180685e-02 
       9.000000e-01       7.180704e-02      -7.180685e-02 
       9.000000e-01       7.180704e-02       7.180722e-02 
       9.000000e-01      -7.180703e-02       7.180722e-02 
       1.000000e+00      -7.180703e-02      -7.180681e-02 
       1.000000e+00       7.180704e-02      -7.180681e-02 
       1.000000e+00       7.180704e-02       7.180726e-02 
       1.000000e+00      -7.180703e-02       7.180726e-02 
       1.000000e+00      -7.180703e-02      -7.180681e-02 
       1.000000e+00       7.180704e-02      -7.180681e-02 
       1.000000e+00       7.180704e-02       7.180726e-02 
       1.000000e+00      -7.180703e-02       7.180726e-02 
       1.100000e+00      -7.180703e-02      -7.180676e-02 
       1.100000e+00       7.180704e-02      -7.180676e-02 
       1.100000e+00       7.180704e-02       7.180731e-02 
       1.100000e+00      -7.180703e-02       7.180731e-02 
       1.100000e+00      -7.180703e-02      -7.180676e-02 
       1.100000e+00       7.180704e-02      -7.180676e-02 
       1.100000e+00       7.180704e-02       7.180731e-02 
       1.100000e+00      -7.180703e-02       7.180731e-02 
       1.200000e+00      -7.180703e-02      -7.180671e-02 
       1.200000e+00       7.180704e-02      -7.180671e-02 
       1.200000e+00       7.180704e-02       7.180736e-02 
       1.200000e+00      -7.180703e-02       7.180736e-02 
       1.200000e+00      -7.180703e-02      -7.180671e-02 
       1.200000e+00       7.180704e-02      -7.180671e-02 
       1.200000e+00       7.180704e-02       7.180736e-02 
       1.200000e+00      -7.180703e-02       7.180736e-02 
       1.300000e+00      -7.180702e-02      -7.180666e-02 
       1.300000e+00       7.180704e-02      -7.180666e-02 
       1.300000e+00       7.180704e-02       7.180741e-02 
       1.300000e+00      -7.180702e-02       7.180741e-02 
       1.300000e+00      -7.180702e-02      -7.180666e-02 
       1.300000e+00       7.180704e-02      -7.180666e-02 
       1.300000e+00       7.180704e-02       7.180741e-02 
       1.300000e+00      -7.180702e-02       7.180741e-02 
       1.400000e+00      -7.180702e-02      -7.180660e-02 
       1.400000e+00       7.180704e-02      -7.180660e-02 
       1.400000e+00       7.180704e-02       7.180747e-02 
       1.400000e+00      -7.180702e-02       7.180747e-02 
       1.400000e+00      -7.180702e-02      -7.180660e-02 
       1.400000e+00       7.180704e-02      -7.180660e-02 
       1.400000e+00       7.180704e-02       7.180747e-02 
       1.400000e+00      -7.180702e-02       7.180747e-02 
       1.500000e+00      -7.180702e-02      -7.180654e-02 
       1.500000e+00       7.180704e-02      -7.180654e-02 
       1.500000e+00       7.180704e-02       7.180753e-02 
       1.500000e+00      -7.180702e-02       7.180753e-02 
       1.500000e+00      -7.180702e-02      -7.180654e-02 
       1.500000e+00       7.180704e-02      -7.180654e-02 
       1.500000e+00       7.180704e-02       7.180753e-02 
       1.500000e+00      -7.180702e-02       7.180753e-02 
       1.600000e+00      -7.180702e-02      -7.180647e-02 
       1.600000e+00       7.180705e-02      -7.180647e-02 
       1.600000e+00       7.180705e-02       7.180759e-02 
       1.600000e+00      -7.180702e-02       7.180759e-02 
       1.600000e+00      -7.180702e-02      -7.180647e-02 
       1.600000e+00       7.180705e-02      -7.180647e-02 
       1.600000e+00       7.180705e-02       7.180759e-02 
       1.600000e+00      -7.180702e-02       7.180759e-02 
       1.700000e+00      -7.180702e-02      -7.180641e-02 
       1.700000e+00       7.180705e-02      -7.180641e-02 
       1.700000e+00       7.180705e-02       7.180766e-02 
       1.700000e+00      -7.180702e-02       7.180766e-02 
       1.700000e+00      -7.180702e-02      -7.180641e-02 
       1.700000e+00       7.180705e-02      -7.180641e-02 
       1.700000e+00       7.180705e-02       7.180766e-02 
       1.700000e+00      -7.180702e-02       7.180766e-02 
       1.800000e+00      -7.180702e-02      -7.180633e-02 
       1.800000e+00       7.180705e-02      -7.180633e-02 
       1.800000e+00       7.180705e-02       7.180773e-02 
       1.800000e+00      -7.180702e-02       7.180773e-02 
       1.800000e+00      -7.180702e-02      -7.180633e-02 
       1.800000e+00       7.180705e-02      -7.180633e-02 
       1.800000e+00       7.180705e-02       7.180773e-02 
       1.800000e+00      -7.180702e-02       7.180773e-02 
       1.900000e+00      -7.180701e-02      -7.180626e-02 
       1.900000e+00       7.180705e-02      -7.180626e-02 
       1.900000e+00       7.180705e-02       7.180781e-02 
       1.900000e+00      -7.180701e-02       7.180781e-02 
       1.900000e+00      -7.180701e-02      -7.180626e-02 
       1.900000e+00       7.180705e-02      -7.180626e-02 
       1.900000e+00       7.180705e-02       7.180781e-02 
       1.900000e+00      -7.180701e-02       7.180781e-02 
       2.000000e+00      -7.180701e-02      -7.180618e-02 
       2.000000e+00       7.180705e-02      -7.180618e-02 
       2.000000e+00       7.180705e-02       7.180788e-02 
       2.000000e+00      -7.180701e-02       7.180788e-02 
       2.000000e+00      -7.180701e-02      -7.180618e-02 
       2.000000e+00       7.180705e-02      -7.180618e-02 
       2.000000e+00       7.180705e-02       7.180788e-02 
       2.000000e+00      -7.180701e-02       7.180788e-02 
       2.100000e+00      -7.180701e-02      -7.180610e-02 
[...]
POINT_DATA       800 
VECTORS Displacements float
       7.37038299e-25      -1.38777878e-17       1.38777878e-17 
      -1.03320769e-24       0.00000000e+00       0.00000000e+00 
      -7.37038299e-25       1.38777878e-17      -1.38777878e-17 
       1.03320769e-24       0.00000000e+00       0.00000000e+00 
       3.54331901e-09       5.77779352e-11       2.41770735e-09 
       3.37789385e-09       5.77779352e-11       2.41770708e-09 
      -3.54427344e-09       5.77782266e-11       2.41770692e-09 
      -3.37884828e-09       5.77782128e-11       2.41770720e-09 
       3.54331901e-09       5.77779352e-11       2.41770735e-09 
       3.37789385e-09       5.77779352e-11       2.41770708e-09 
      -3.54427344e-09       5.77782266e-11       2.41770692e-09 
      -3.37884828e-09       5.77782128e-11       2.41770720e-09 
       7.01854444e-09       2.29636560e-10       9.60908664e-09 
       6.69087272e-09       2.29636560e-10       9.60908605e-09 
      -7.02045549e-09       2.29637115e-10       9.60908539e-09 
      -6.69278377e-09       2.29637101e-10       9.60908597e-09 
       7.01854444e-09       2.29636560e-10       9.60908664e-09 
       6.69087272e-09       2.29636560e-10       9.60908605e-09 
      -7.02045549e-09       2.29637115e-10       9.60908539e-09 
      -6.69278377e-09       2.29637101e-10       9.60908597e-09 
       1.04256763e-08       5.13362547e-10       2.14815240e-08 
       9.93893662e-09       5.13362547e-10       2.14815231e-08 
      -1.04285460e-08       5.13363366e-10       2.14815217e-08 
      -9.94180632e-09       5.13363366e-10       2.14815226e-08 
       1.04256763e-08       5.13362547e-10       2.14815240e-08 
       9.93893662e-09       5.13362547e-10       2.14815231e-08 
      -1.04285460e-08       5.13363366e-10       2.14815217e-08 
      -9.94180632e-09       5.13363366e-10       2.14815226e-08 
       1.37647146e-08       9.06742639e-10       3.79424057e-08 
       1.31220855e-08       9.06742639e-10       3.79424045e-08 
      -1.37685452e-08       9.06743736e-10       3.79424020e-08 
      -1.31259161e-08       9.06743736e-10       3.79424032e-08 
       1.37647146e-08       9.06742639e-10       3.79424057e-08 
       1.31220855e-08       9.06742639e-10       3.79424045e-08 
      -1.37685452e-08       9.06743736e-10       3.79424020e-08 
      -1.31259161e-08       9.06743736e-10       3.79424032e-08 
       1.70356594e-08       1.40756359e-09       5.88991180e-08 
       1.62403194e-08       1.40756359e-09       5.88991165e-08 
      -1.70404530e-08       1.40756493e-09       5.88991126e-08 
      -1.62451130e-08       1.40756493e-09       5.88991141e-08 
       1.70356594e-08       1.40756359e-09       5.88991180e-08 
       1.62403194e-08       1.40756359e-09       5.88991165e-08 
      -1.70404530e-08       1.40756493e-09       5.88991126e-08 
      -1.62451130e-08       1.40756493e-09       5.88991141e-08 
       2.02385109e-08       2.01361212e-09       8.42590470e-08 
       1.92936386e-08       2.01361212e-09       8.42590452e-08 
      -2.02442691e-08       2.01361369e-09       8.42590397e-08 
      -1.92993969e-08       2.01361369e-09       8.42590415e-08 
       2.02385109e-08       2.01361212e-09       8.42590470e-08 
       1.92936386e-08       2.01361212e-09       8.42590452e-08 
      -2.02442691e-08       2.01361369e-09       8.42590397e-08 
      -1.92993969e-08       2.01361369e-09       8.42590415e-08 
       2.33732684e-08       2.72267492e-09       1.13929579e-07 
       2.22820424e-08       2.72267492e-09       1.13929577e-07 
      -2.33799938e-08       2.72267674e-09       1.13929570e-07 
      -2.22887678e-08       2.72267674e-09       1.13929572e-07 
       2.33732684e-08       2.72267492e-09       1.13929579e-07 
       2.22820424e-08       2.72267492e-09       1.13929577e-07 
      -2.33799938e-08       2.72267674e-09       1.13929570e-07 
      -2.22887678e-08       2.72267674e-09       1.13929572e-07 
       2.64399329e-08       3.53253873e-09       1.47818100e-07 
       2.52055318e-08       3.53253873e-09       1.47818098e-07 
      -2.64476270e-08       3.53254079e-09       1.47818088e-07 
      -2.52132258e-08       3.53254080e-09       1.47818091e-07 
       2.64399329e-08       3.53253873e-09       1.47818100e-07 
       2.52055318e-08       3.53253873e-09       1.47818098e-07 
      -2.64476270e-08       3.53254079e-09       1.47818088e-07 
      -2.52132258e-08       3.53254080e-09       1.47818091e-07 
       2.94385037e-08       4.44099031e-09       1.85831997e-07 
       2.80641060e-08       4.44099030e-09       1.85831994e-07 
      -2.94471687e-08       4.44099259e-09       1.85831982e-07 
      -2.80727710e-08       4.44099259e-09       1.85831985e-07 
       2.94385037e-08       4.44099031e-09       1.85831997e-07 
       2.80641060e-08       4.44099030e-09       1.85831994e-07 
      -2.94471687e-08       4.44099259e-09       1.85831982e-07 
      -2.80727710e-08       4.44099259e-09       1.85831985e-07 
       3.23689813e-08       5.44581635e-09       2.27878655e-07 
       3.08577655e-08       5.44581635e-09       2.27878652e-07 
      -3.23786188e-08       5.44581885e-09       2.27878638e-07 
      -3.08674030e-08       5.44581885e-09       2.27878641e-07 
       3.23689813e-08       5.44581635e-09       2.27878655e-07 
       3.08577655e-08       5.44581635e-09       2.27878652e-07 
      -3.23786188e-08       5.44581885e-09       2.27878638e-07 
      -3.08674030e-08       5.44581885e-09       2.27878641e-07 
       3.52351199e-08       6.54484249e-09       2.73867085e-07 
       3.35900974e-08       6.54484250e-09       2.73867082e-07 
      -3.52453906e-08       6.54484508e-09       2.73867065e-07 
      -3.36003680e-08       6.54484507e-09       2.73867069e-07 
       3.52351199e-08       6.54484249e-09       2.73867085e-07 
       3.35900974e-08       6.54484250e-09       2.73867082e-07 
      -3.52453906e-08       6.54484508e-09       2.73867065e-07 
      -3.36003680e-08       6.54484507e-09       2.73867069e-07 
       3.80403313e-08       7.73604951e-09       3.23712799e-07 
       3.62643460e-08       7.73604951e-09       3.23712795e-07 
      -3.80512395e-08       7.73605220e-09       3.23712776e-07 
      -3.62752541e-08       7.73605220e-09       3.23712780e-07 
       3.80403313e-08       7.73604951e-09       3.23712799e-07 
       3.62643460e-08       7.73604951e-09       3.23712795e-07 
      -3.80512395e-08       7.73605220e-09       3.23712776e-07 
      -3.62752541e-08       7.73605220e-09       3.23712780e-07 
       4.07846152e-08       9.01745714e-09       3.77332930e-07 
       3.88805113e-08       9.01745714e-09       3.77332926e-07 
      -4.07961662e-08       9.01745993e-09       3.77332904e-07 
      -3.88920622e-08       9.01745993e-09       3.77332908e-07 
       4.07846152e-08       9.01745714e-09       3.77332930e-07 
       3.88805113e-08       9.01745714e-09       3.77332926e-07 
      -4.07961662e-08       9.01745993e-09       3.77332904e-07 
      -3.88920622e-08       9.01745993e-09       3.77332908e-07 
       4.34679723e-08       1.03870851e-08       4.34644614e-07 
       4.14385934e-08       1.03870851e-08       4.34644610e-07 
      -4.34801701e-08       1.03870880e-08       4.34644585e-07 
      -4.14507915e-08       1.03870879e-08       4.34644589e-07 
       4.34679723e-08       1.03870851e-08       4.34644614e-07 
       4.14385934e-08       1.03870851e-08       4.34644610e-07 
      -4.34801701e-08       1.03870880e-08       4.34644585e-07 
      -4.14507915e-08       1.03870879e-08       4.34644589e-07 
       4.60904019e-08       1.18429530e-08       4.95564986e-07 
       4.39385923e-08       1.18429530e-08       4.95564982e-07 
      -4.61032519e-08       1.18429560e-08       4.95564954e-07 
      -4.39514423e-08       1.18429560e-08       4.95564958e-07 
       4.60904019e-08       1.18429530e-08       4.95564986e-07 
       4.39385923e-08       1.18429530e-08       4.95564982e-07 
      -4.61032519e-08       1.18429560e-08       4.95564954e-07 
      -4.39514423e-08       1.18429560e-08       4.95564958e-07 
       4.86519047e-08       1.33830807e-08       5.60011182e-07 
       4.63805083e-08       1.33830807e-08       5.60011177e-07 
      -4.86654108e-08       1.33830837e-08       5.60011146e-07 
      -4.63940144e-08       1.33830837e-08       5.60011150e-07 
       4.86519047e-08       1.33830807e-08       5.60011182e-07 
       4.63805083e-08       1.33830807e-08       5.60011177e-07 
      -4.86654108e-08       1.33830837e-08       5.60011146e-07 
      -4.63940144e-08       1.33830837e-08       5.60011150e-07 
       5.11524805e-08       1.50054877e-08       6.27900335e-07 
       4.87643412e-08       1.50054877e-08       6.27900330e-07 
      -5.11666467e-08       1.50054909e-08       6.27900295e-07 
      -4.87785075e-08       1.50054909e-08       6.27900300e-07 
       5.11524805e-08       1.50054877e-08       6.27900335e-07 
       4.87643412e-08       1.50054877e-08       6.27900330e-07 
      -5.11666467e-08       1.50054909e-08       6.27900295e-07 
      -4.87785075e-08       1.50054909e-08       6.27900300e-07 
       5.35921292e-08       1.67081939e-08       6.99149581e-07 
       5.10900910e-08       1.67081939e-08       6.99149576e-07 
      -5.36069602e-08       1.67081971e-08       6.99149538e-07 
      -5.11049223e-08       1.67081971e-08       6.99149543e-07 
       5.35921292e-08       1.67081939e-08       6.99149581e-07 
       5.10900910e-08       1.67081939e-08       6.99149576e-07 
      -5.36069602e-08       1.67081971e-08       6.99149538e-07 
      -5.11049223e-08       1.67081971e-08       6.99149543e-07 
       5.59708511e-08       1.84892189e-08       7.73676055e-07 
       5.33577582e-08       1.84892189e-08       7.73676050e-07 
      -5.59863507e-08       1.84892222e-08       7.73676008e-07 
      -5.33732578e-08       1.84892222e-08       7.73676013e-07 
       5.59708511e-08       1.84892189e-08       7.73676055e-07 
       5.33577582e-08       1.84892189e-08       7.73676050e-07 
      -5.59863507e-08       1.84892222e-08       7.73676008e-07 
      -5.33732578e-08       1.84892222e-08       7.73676013e-07 
       5.82886459e-08       2.03465824e-08       8.51396892e-07 
       5.55673423e-08       2.03465824e-08       8.51396887e-07 
      -5.83048185e-08       2.03465858e-08       8.51396842e-07 
      -5.55835147e-08       2.03465858e-08       8.51396847e-07 
       5.82886459e-08       2.03465824e-08       8.51396892e-07 
       5.55673423e-08       2.03465824e-08       8.51396887e-07 
      -5.83048183e-08       2.03465858e-08       8.51396842e-07 
      -5.55835147e-08       2.03465858e-08       8.51396847e-07 
       6.05492181e-08       2.22783430e-08       9.32230852e-07 
       5.77223802e-08       2.22783430e-08       9.32230847e-07 
      -6.05658270e-08       2.22783464e-08       9.32230798e-07 
      -5.77389891e-08       2.22783464e-08       9.32230804e-07 
       6.05492181e-08       2.22783430e-08       9.32230852e-07 
       5.77223802e-08       2.22783430e-08       9.32230847e-07 
      -6.05658270e-08       2.22783464e-08       9.32230798e-07 
      -5.77389891e-08       2.22783464e-08       9.32230804e-07 
       6.27560297e-08       2.42827146e-08       1.01610319e-06 
       5.98261671e-08       2.42827145e-08       1.01610319e-06 
      -6.27730814e-08       2.42827179e-08       1.01610314e-06 
      -5.98432184e-08       2.42827179e-08       1.01610314e-06 
       6.27560297e-08       2.42827146e-08       1.01610319e-06 
       5.98261671e-08       2.42827145e-08       1.01610319e-06 
      -6.27730814e-08       2.42827179e-08       1.01610314e-06 
      -5.98432184e-08       2.42827179e-08       1.01610314e-06 
       6.49090821e-08       2.63579497e-08       1.10294080e-06 
       6.18787039e-08       2.63579497e-08       1.10294080e-06 
      -6.49265806e-08       2.63579530e-08       1.10294074e-06 
      -6.18962024e-08       2.63579530e-08       1.10294075e-06 
       6.49090821e-08       2.63579497e-08       1.10294080e-06 
       6.18787039e-08       2.63579497e-08       1.10294080e-06 
      -6.49265806e-08       2.63579530e-08       1.10294074e-06 
      -6.18962024e-08       2.63579530e-08       1.10294075e-06 
       6.70083740e-08       2.85023010e-08       1.19267056e-06 
       6.38799902e-08       2.85023010e-08       1.19267055e-06 
      -6.70263258e-08       2.85023044e-08       1.19267049e-06 
      -6.38979416e-08       2.85023044e-08       1.19267050e-06 
       6.70083740e-08       2.85023010e-08       1.19267056e-06 
       6.38799902e-08       2.85023010e-08       1.19267055e-06 
      -6.70263258e-08       2.85023044e-08       1.19267049e-06 
      -6.38979416e-08       2.85023044e-08       1.19267050e-06 
       6.90539061e-08       3.07140213e-08       1.28521935e-06 
       6.58300254e-08       3.07140213e-08       1.28521934e-06 
      -6.90723168e-08       3.07140247e-08       1.28521928e-06 
      -6.58484360e-08       3.07140247e-08       1.28521929e-06 
       6.90539061e-08       3.07140213e-08       1.28521935e-06 
       6.58300254e-08       3.07140213e-08       1.28521934e-06 
      -6.90723168e-08       3.07140247e-08       1.28521928e-06 
      -6.58484360e-08       3.07140247e-08       1.28521929e-06 
       7.10456782e-08       3.29913632e-08       1.38051406e-06 
       6.77288106e-08       3.29913632e-08       1.38051405e-06 
      -7.10645525e-08       3.29913666e-08       1.38051399e-06 
      -6.77476848e-08       3.29913666e-08       1.38051399e-06 
       7.10456782e-08       3.29913632e-08       1.38051406e-06 
       6.77288106e-08       3.29913632e-08       1.38051405e-06 
      -7.10645525e-08       3.29913666e-08       1.38051399e-06 
      -6.77476848e-08       3.29913666e-08       1.38051399e-06 
       7.29836906e-08       3.53325794e-08       1.47848157e-06 
       6.95763451e-08       3.53325794e-08       1.47848156e-06 
      -7.30030338e-08       3.53325828e-08       1.47848149e-06 
      -6.95956883e-08       3.53325828e-08       1.47848150e-06 
       7.29836906e-08       3.53325794e-08       1.47848157e-06 
       6.95763451e-08       3.53325794e-08       1.47848156e-06 
      -7.30030338e-08       3.53325828e-08       1.47848149e-06 
      -6.95956883e-08       3.53325828e-08       1.47848150e-06 
       7.48679443e-08       3.77359226e-08       1.57904876e-06 
       7.13726305e-08       3.77359226e-08       1.57904876e-06 
      -7.48877600e-08       3.77359259e-08       1.57904868e-06 
      -7.13924457e-08       3.77359260e-08       1.57904869e-06 
       7.48679443e-08       3.77359226e-08       1.57904876e-06 
       7.13726305e-08       3.77359226e-08       1.57904876e-06 
      -7.48877600e-08       3.77359259e-08       1.57904868e-06 
      -7.13924457e-08       3.77359260e-08       1.57904869e-06 
       7.66984374e-08       4.01996454e-08       1.68214253e-06 
       7.31176644e-08       4.01996454e-08       1.68214252e-06 
      -7.67187314e-08       4.01996488e-08       1.68214244e-06 
      -7.31379584e-08       4.01996488e-08       1.68214245e-06 
       7.66984374e-08       4.01996454e-08       1.68214253e-06 
       7.31176644e-08       4.01996454e-08       1.68214252e-06 
      -7.67187314e-08       4.01996488e-08       1.68214244e-06 
      -7.31379584e-08       4.01996488e-08       1.68214245e-06 
       7.84751713e-08       4.27220006e-08       1.78768974e-06 
       7.48114486e-08       4.27220006e-08       1.78768974e-06 
      -7.84959484e-08       4.27220039e-08       1.78768966e-06 
      -7.48322257e-08       4.27220040e-08       1.78768966e-06 
       7.84751708e-08       4.27220006e-08       1.78768974e-06 
       7.48114486e-08       4.27220005e-08       1.78768974e-06 
      -7.84959480e-08       4.27220039e-08       1.78768966e-06 
      -7.48322257e-08       4.27220040e-08       1.78768966e-06 
       8.02018096e-08       4.53012796e-08       1.89561892e-06 
       7.64574795e-08       4.53012796e-08       1.89561892e-06 
      -8.02229132e-08       4.53012829e-08       1.89561883e-06 
      -7.64785830e-08       4.53012829e-08       1.89561884e-06 
       8.02018096e-08       4.53012796e-08       1.89561892e-06 
       7.64574795e-08       4.53012796e-08       1.89561892e-06 
      -8.02229132e-08       4.53012829e-08       1.89561883e-06 
      -7.64785830e-08       4.53012829e-08       1.89561884e-06 
       8.18818560e-08       4.79359293e-08       2.00586507e-06 
       7.80590934e-08       4.79359293e-08       2.00586506e-06 
      -8.19032913e-08       4.79359326e-08       2.00586497e-06 
      -7.80805287e-08       4.79359326e-08       2.00586498e-06 
       8.18818560e-08       4.79359293e-08       2.00586507e-06 
       7.80590934e-08       4.79359293e-08       2.00586506e-06 
      -8.19032913e-08       4.79359326e-08       2.00586497e-06 
      -7.80805287e-08       4.79359326e-08       2.00586498e-06 
       8.35153102e-08       5.06244353e-08       2.11836482e-06 
       7.96162900e-08       5.06244353e-08       2.11836481e-06 
      -8.35370817e-08       5.06244385e-08       2.11836472e-06 
      -7.96380610e-08       5.06244386e-08       2.11836473e-06 
       8.35153102e-08       5.06244353e-08       2.11836482e-06 
       7.96162900e-08       5.06244353e-08       2.11836481e-06 
      -8.35370817e-08       5.06244385e-08       2.11836472e-06 
      -7.96380610e-08       5.06244386e-08       2.11836473e-06 
       8.51021724e-08       5.33652833e-08       2.23305480e-06 
       8.11290688e-08       5.33652832e-08       2.23305480e-06 
      -8.51242858e-08       5.33652865e-08       2.23305470e-06 
      -8.11511822e-08       5.33652865e-08       2.23305471e-06 
       8.51021724e-08       5.33652833e-08       2.23305480e-06 
       8.11290688e-08       5.33652832e-08       2.23305480e-06 
      -8.51242858e-08       5.33652865e-08       2.23305470e-06 
      -8.11511822e-08       5.33652865e-08       2.23305471e-06 
       8.66424421e-08       5.61569589e-08       2.34987165e-06 
       8.25974302e-08       5.61569589e-08       2.34987165e-06 
      -8.66649028e-08       5.61569620e-08       2.34987155e-06 
      -8.26198909e-08       5.61569621e-08       2.34987155e-06 
       8.66424421e-08       5.61569589e-08       2.34987165e-06 
       8.25974302e-08       5.61569589e-08       2.34987165e-06 
      -8.66649028e-08       5.61569620e-08       2.34987155e-06 
      -8.26198909e-08       5.61569621e-08       2.34987155e-06 
       8.81361197e-08       5.89979478e-08       2.46875201e-06 
       8.40213747e-08       5.89979477e-08       2.46875200e-06 
      -8.81589326e-08       5.89979509e-08       2.46875189e-06 
      -8.40441872e-08       5.89979510e-08       2.46875190e-06 
       8.81361197e-08       5.89979478e-08       2.46875201e-06 
       8.40213747e-08       5.89979477e-08       2.46875200e-06 
      -8.81589326e-08       5.89979509e-08       2.46875189e-06 
      -8.40441872e-08       5.89979510e-08       2.46875190e-06 
       8.95832057e-08       6.18867357e-08       2.58963249e-06 
       8.54009019e-08       6.18867356e-08       2.58963248e-06 
      -8.96063752e-08       6.18867387e-08       2.58963238e-06 
      -8.54240714e-08       6.18867388e-08       2.58963238e-06 
       8.95832057e-08       6.18867357e-08       2.58963249e-06 
       8.54009019e-08       6.18867356e-08       2.58963248e-06 
      -8.96063752e-08       6.18867387e-08       2.58963238e-06 
      -8.54240714e-08       6.18867388e-08       2.58963238e-06 
       9.09836997e-08       6.48218081e-08       2.71244974e-06 
       8.67360122e-08       6.48218080e-08       2.71244973e-06 
      -9.10072302e-08       6.48218111e-08       2.71244962e-06 
      -8.67595427e-08       6.48218112e-08       2.71244963e-06 
       9.09836997e-08       6.48218081e-08       2.71244974e-06 
       8.67360122e-08       6.48218080e-08       2.71244973e-06 