# vtk DataFile Version 2.0
./output/onsasExample_nonLinearCantileverBlade_staitc3D_no_pitch numElements=10/onsasExample_nonLinearCantileverBlade_staitc3D_no_pitch numElements=10_0020.vtk
ASCII
DATASET UNSTRUCTURED_GRID

POINTS 800 float
      -3.762275e-24      -7.180703e-02      -7.180703e-02 
       1.272074e-24       7.180703e-02      -7.180703e-02 
       3.762275e-24       7.180703e-02       7.180703e-02 
      -1.272074e-24      -7.180703e-02       7.180703e-02 
       1.000000e-01      -7.180703e-02      -7.180703e-02 
       1.000000e-01       7.180703e-02      -7.180703e-02 
       1.000000e-01       7.180703e-02       7.180704e-02 
       1.000000e-01      -7.180703e-02       7.180704e-02 
       1.000000e-01      -7.180703e-02      -7.180703e-02 
       1.000000e-01       7.180703e-02      -7.180703e-02 
       1.000000e-01       7.180703e-02       7.180704e-02 
       1.000000e-01      -7.180703e-02       7.180704e-02 
       2.000000e-01      -7.180703e-02      -7.180702e-02 
       2.000000e-01       7.180703e-02      -7.180702e-02 
       2.000000e-01       7.180703e-02       7.180704e-02 
       2.000000e-01      -7.180703e-02       7.180704e-02 
       2.000000e-01      -7.180703e-02      -7.180702e-02 
       2.000000e-01       7.180703e-02      -7.180702e-02 
       2.000000e-01       7.180703e-02       7.180704e-02 
       2.000000e-01      -7.180703e-02       7.180704e-02 
       3.000000e-01      -7.180703e-02      -7.180701e-02 
       3.000000e-01       7.180704e-02      -7.180701e-02 
       3.000000e-01       7.180704e-02       7.180705e-02 
       3.000000e-01      -7.180703e-02       7.180705e-02 
       3.000000e-01      -7.180703e-02      -7.180701e-02 
       3.000000e-01       7.180704e-02      -7.180701e-02 
       3.000000e-01       7.180704e-02       7.180705e-02 
       3.000000e-01      -7.180703e-02       7.180705e-02 
       4.000000e-01      -7.180703e-02      -7.180700e-02 
       4.000000e-01       7.180704e-02      -7.180700e-02 
       4.000000e-01       7.180704e-02       7.180707e-02 
       4.000000e-01      -7.180703e-02       7.180707e-02 
       4.000000e-01      -7.180703e-02      -7.180700e-02 
       4.000000e-01       7.180704e-02      -7.180700e-02 
       4.000000e-01       7.180704e-02       7.180707e-02 
       4.000000e-01      -7.180703e-02       7.180707e-02 
       5.000000e-01      -7.180703e-02      -7.180698e-02 
       5.000000e-01       7.180704e-02      -7.180698e-02 
       5.000000e-01       7.180704e-02       7.180709e-02 
       5.000000e-01      -7.180703e-02       7.180709e-02 
       5.000000e-01      -7.180703e-02      -7.180698e-02 
       5.000000e-01       7.180704e-02      -7.180698e-02 
       5.000000e-01       7.180704e-02       7.180709e-02 
       5.000000e-01      -7.180703e-02       7.180709e-02 
       6.000000e-01      -7.180703e-02      -7.180695e-02 
       6.000000e-01       7.180704e-02      -7.180695e-02 
       6.000000e-01       7.180704e-02       7.180711e-02 
       6.000000e-01      -7.180703e-02       7.180711e-02 
       6.000000e-01      -7.180703e-02      -7.180695e-02 
       6.000000e-01       7.180704e-02      -7.180695e-02 
       6.000000e-01       7.180704e-02       7.180711e-02 
       6.000000e-01      -7.180703e-02       7.180711e-02 
       7.000000e-01      -7.180702e-02      -7.180692e-02 
       7.000000e-01       7.180704e-02      -7.180692e-02 
       7.000000e-01       7.180704e-02       7.180714e-02 
       7.000000e-01      -7.180702e-02       7.180714e-02 
       7.000000e-01      -7.180702e-02      -7.180692e-02 
       7.000000e-01       7.180704e-02      -7.180692e-02 
       7.000000e-01       7.180704e-02       7.180714e-02 
       7.000000e-01      -7.180702e-02       7.180714e-02 
       8.000000e-01      -7.180702e-02      -7.180689e-02 
       8.000000e-01       7.180705e-02      -7.180689e-02 
       8.000000e-01       7.180705e-02       7.180717e-02 
       8.000000e-01      -7.180702e-02       7.180717e-02 
       8.000000e-01      -7.180702e-02      -7.180689e-02 
       8.000000e-01       7.180705e-02      -7.180689e-02 
       8.000000e-01       7.180705e-02       7.180717e-02 
       8.000000e-01      -7.180702e-02       7.180717e-02 
       9.000000e-01      -7.180702e-02      -7.180686e-02 
       9.000000e-01       7.180705e-02      -7.180686e-02 
       9.000000e-01       7.180705e-02       7.180721e-02 
       9.000000e-01      -7.180702e-02       7.180721e-02 
       9.000000e-01      -7.180702e-02      -7.180686e-02 
       9.000000e-01       7.180705e-02      -7.180686e-02 
       9.000000e-01       7.180705e-02       7.180721e-02 
       9.000000e-01      -7.180702e-02       7.180721e-02 
       1.000000e+00      -7.180701e-02      -7.180682e-02 
       1.000000e+00       7.180705e-02      -7.180682e-02 
       1.000000e+00       7.180705e-02       7.180725e-02 
       1.000000e+00      -7.180701e-02       7.180725e-02 
       1.000000e+00      -7.180701e-02      -7.180682e-02 
       1.000000e+00       7.180705e-02      -7.180682e-02 
       1.000000e+00       7.180705e-02       7.180725e-02 
       1.000000e+00      -7.180701e-02       7.180725e-02 
       1.100000e+00      -7.180701e-02      -7.180677e-02 
       1.100000e+00       7.180706e-02      -7.180677e-02 
       1.100000e+00       7.180706e-02       7.180730e-02 
       1.100000e+00      -7.180701e-02       7.180730e-02 
       1.100000e+00      -7.180701e-02      -7.180677e-02 
       1.100000e+00       7.180706e-02      -7.180677e-02 
       1.100000e+00       7.180706e-02       7.180730e-02 
       1.100000e+00      -7.180701e-02       7.180730e-02 
       1.200000e+00      -7.180700e-02      -7.180672e-02 
       1.200000e+00       7.180706e-02      -7.180672e-02 
       1.200000e+00       7.180706e-02       7.180734e-02 
       1.200000e+00      -7.180700e-02       7.180734e-02 
       1.200000e+00      -7.180700e-02      -7.180672e-02 
       1.200000e+00       7.180706e-02      -7.180672e-02 
       1.200000e+00       7.180706e-02       7.180734e-02 
       1.200000e+00      -7.180700e-02       7.180734e-02 
       1.300000e+00      -7.180700e-02      -7.180667e-02 
       1.300000e+00       7.180707e-02      -7.180667e-02 
       1.300000e+00       7.180707e-02       7.180739e-02 
       1.300000e+00      -7.180700e-02       7.180739e-02 
       1.300000e+00      -7.180700e-02      -7.180667e-02 
       1.300000e+00       7.180707e-02      -7.180667e-02 
       1.300000e+00       7.180707e-02       7.180739e-02 
       1.300000e+00      -7.180700e-02       7.180739e-02 
       1.400000e+00      -7.180699e-02      -7.180662e-02 
       1.400000e+00       7.180707e-02      -7.180662e-02 
       1.400000e+00       7.180707e-02       7.180745e-02 
       1.400000e+00      -7.180699e-02       7.180745e-02 
       1.400000e+00      -7.180699e-02      -7.180662e-02 
       1.400000e+00       7.180707e-02      -7.180662e-02 
       1.400000e+00       7.180707e-02       7.180745e-02 
       1.400000e+00      -7.180699e-02       7.180745e-02 
       1.500000e+00      -7.180699e-02      -7.180656e-02 
       1.500000e+00       7.180708e-02      -7.180656e-02 
       1.500000e+00       7.180708e-02       7.180751e-02 
       1.500000e+00      -7.180699e-02       7.180751e-02 
       1.500000e+00      -7.180699e-02      -7.180656e-02 
       1.500000e+00       7.180708e-02      -7.180656e-02 
       1.500000e+00       7.180708e-02       7.180751e-02 
       1.500000e+00      -7.180699e-02       7.180751e-02 
       1.600000e+00      -7.180698e-02      -7.180650e-02 
       1.600000e+00       7.180708e-02      -7.180650e-02 
       1.600000e+00       7.180708e-02       7.180757e-02 
       1.600000e+00      -7.180698e-02       7.180757e-02 
       1.600000e+00      -7.180698e-02      -7.180650e-02 
       1.600000e+00       7.180708e-02      -7.180650e-02 
       1.600000e+00       7.180708e-02       7.180757e-02 
       1.600000e+00      -7.180698e-02       7.180757e-02 
       1.700000e+00      -7.180698e-02      -7.180643e-02 
       1.700000e+00       7.180709e-02      -7.180643e-02 
       1.700000e+00       7.180709e-02       7.180763e-02 
       1.700000e+00      -7.180698e-02       7.180763e-02 
       1.700000e+00      -7.180698e-02      -7.180643e-02 
       1.700000e+00       7.180709e-02      -7.180643e-02 
       1.700000e+00       7.180709e-02       7.180763e-02 
       1.700000e+00      -7.180698e-02       7.180763e-02 
       1.800000e+00      -7.180697e-02      -7.180636e-02 
       1.800000e+00       7.180710e-02      -7.180636e-02 
       1.800000e+00       7.180710e-02       7.180770e-02 
       1.800000e+00      -7.180697e-02       7.180770e-02 
       1.800000e+00      -7.180697e-02      -7.180636e-02 
       1.800000e+00       7.180710e-02      -7.180636e-02 
       1.800000e+00       7.180710e-02       7.180770e-02 
       1.800000e+00      -7.180697e-02       7.180770e-02 
       1.900000e+00      -7.180696e-02      -7.180629e-02 
       1.900000e+00       7.180710e-02      -7.180629e-02 
       1.900000e+00       7.180710e-02       7.180777e-02 
       1.900000e+00      -7.180696e-02       7.180777e-02 
       1.900000e+00      -7.180696e-02      -7.180629e-02 
       1.900000e+00       7.180710e-02      -7.180629e-02 
       1.900000e+00       7.180710e-02       7.180777e-02 
       1.900000e+00      -7.180696e-02       7.180777e-02 
       2.000000e+00      -7.180696e-02      -7.180622e-02 
       2.000000e+00       7.180711e-02      -7.180622e-02 
       2.000000e+00       7.180711e-02       7.180785e-02 
       2.000000e+00      -7.180696e-02       7.180785e-02 
       2.000000e+00      -7.180696e-02      -7.180622e-02 
       2.000000e+00       7.180711e-02      -7.180622e-02 
       2.000000e+00       7.180711e-02       7.180785e-02 
       2.000000e+00      -7.180696e-02       7.180785e-02 
       2.100000e+00      -7.180695e-02      -7.180614e-02 
[...]
POINT_DATA       800 
VECTORS Displacements float
      -3.76227503e-24       1.38777878e-17       0.00000000e+00 
       1.27207400e-24       1.38777878e-17       0.00000000e+00 
       3.76227503e-24      -1.38777878e-17       0.00000000e+00 
      -1.27207400e-24      -1.38777878e-17       0.00000000e+00 
       3.62391349e-09       2.18937993e-10       2.31286199e-09 
       2.99706798e-09       2.18937979e-10       2.31286094e-09 
      -3.62491419e-09       2.18938978e-10       2.31286079e-09 
      -2.99806868e-09       2.18938992e-10       2.31286183e-09 
       3.62391349e-09       2.18937993e-10       2.31286199e-09 
       2.99706798e-09       2.18937979e-10       2.31286094e-09 
      -3.62491419e-09       2.18938978e-10       2.31286079e-09 
      -2.99806868e-09       2.18938992e-10       2.31286183e-09 
       7.17818444e-09       8.70161790e-10       9.19238193e-09 
       5.93653798e-09       8.70161776e-10       9.19237982e-09 
      -7.18018789e-09       8.70163760e-10       9.19237923e-09 
      -5.93854144e-09       8.70163774e-10       9.19238134e-09 
       7.17818444e-09       8.70161790e-10       9.19238193e-09 
       5.93653798e-09       8.70161776e-10       9.19237982e-09 
      -7.18018789e-09       8.70163760e-10       9.19237923e-09 
      -5.93854144e-09       8.70163774e-10       9.19238134e-09 
       1.06628129e-08       1.94528464e-09       2.05499623e-08 
       8.81841006e-09       1.94528463e-09       2.05499591e-08 
      -1.06658210e-08       1.94528757e-09       2.05499577e-08 
      -8.82141815e-09       1.94528758e-09       2.05499610e-08 
       1.06628129e-08       1.94528464e-09       2.05499623e-08 
       8.81841006e-09       1.94528463e-09       2.05499591e-08 
      -1.06658210e-08       1.94528757e-09       2.05499577e-08 
      -8.82141815e-09       1.94528758e-09       2.05499610e-08 
       1.40777988e-08       3.43591981e-09       3.62970056e-08 
       1.16426842e-08       3.43591978e-09       3.62970012e-08 
      -1.40818135e-08       3.43592367e-09       3.62969989e-08 
      -1.16466989e-08       3.43592370e-09       3.62970033e-08 
       1.40777988e-08       3.43591981e-09       3.62970056e-08 
       1.16426842e-08       3.43591978e-09       3.62970012e-08 
      -1.40818135e-08       3.43592367e-09       3.62969989e-08 
      -1.16466989e-08       3.43592370e-09       3.62970033e-08 
       1.74231424e-08       5.33368051e-09       5.63449142e-08 
       1.44093604e-08       5.33368048e-09       5.63449087e-08 
      -1.74281655e-08       5.33368527e-09       5.63449052e-08 
      -1.44143836e-08       5.33368530e-09       5.63449107e-08 
       1.74231424e-08       5.33368051e-09       5.63449142e-08 
       1.44093604e-08       5.33368048e-09       5.63449087e-08 
      -1.74281655e-08       5.33368527e-09       5.63449052e-08 
      -1.44143836e-08       5.33368530e-09       5.63449107e-08 
       2.06988434e-08       7.63018000e-09       8.06050907e-08 
       1.71184389e-08       7.63017996e-09       8.06050841e-08 
      -2.07048768e-08       7.63018565e-09       8.06050791e-08 
      -1.71244723e-08       7.63018571e-09       8.06050857e-08 
       2.06988434e-08       7.63018000e-09       8.06050907e-08 
       1.71184389e-08       7.63017996e-09       8.06050841e-08 
      -2.07048768e-08       7.63018565e-09       8.06050791e-08 
      -1.71244723e-08       7.63018571e-09       8.06050857e-08 
       2.39049021e-08       1.03170315e-08       1.08988937e-07 
       1.97699194e-08       1.03170315e-08       1.08988930e-07 
      -2.39119475e-08       1.03170380e-08       1.08988923e-07 
      -1.97769648e-08       1.03170381e-08       1.08988931e-07 
       2.39049021e-08       1.03170315e-08       1.08988937e-07 
       1.97699194e-08       1.03170315e-08       1.08988930e-07 
      -2.39119475e-08       1.03170380e-08       1.08988923e-07 
      -1.97769648e-08       1.03170381e-08       1.08988931e-07 
       2.70413181e-08       1.33858483e-08       1.41407857e-07 
       2.23638019e-08       1.33858482e-08       1.41407848e-07 
      -2.70493777e-08       1.33858556e-08       1.41407840e-07 
      -2.23718616e-08       1.33858557e-08       1.41407849e-07 
       2.70413181e-08       1.33858483e-08       1.41407857e-07 
       2.23638019e-08       1.33858482e-08       1.41407848e-07 
      -2.70493777e-08       1.33858556e-08       1.41407840e-07 
      -2.23718616e-08       1.33858557e-08       1.41407849e-07 
       3.01080920e-08       1.68282436e-08       1.77773252e-07 
       2.49000868e-08       1.68282435e-08       1.77773242e-07 
      -3.01171671e-08       1.68282518e-08       1.77773231e-07 
      -2.49091618e-08       1.68282519e-08       1.77773242e-07 
       3.01080920e-08       1.68282436e-08       1.77773252e-07 
       2.49000868e-08       1.68282435e-08       1.77773242e-07 
      -3.01171671e-08       1.68282518e-08       1.77773231e-07 
      -2.49091618e-08       1.68282519e-08       1.77773242e-07 
       3.31052232e-08       2.06358307e-08       2.17996525e-07 
       2.73787737e-08       2.06358306e-08       2.17996513e-07 
      -3.31153160e-08       2.06358397e-08       2.17996501e-07 
      -2.73888663e-08       2.06358398e-08       2.17996512e-07 
       3.31052235e-08       2.06358307e-08       2.17996525e-07 
       2.73787737e-08       2.06358306e-08       2.17996513e-07 
      -3.31153159e-08       2.06358397e-08       2.17996501e-07 
      -2.73888663e-08       2.06358398e-08       2.17996512e-07 
       3.60365566e-08       2.48003702e-08       2.61990632e-07 
       2.98030731e-08       2.48003700e-08       2.61990620e-07 
      -3.60473105e-08       2.48003794e-08       2.61990604e-07 
      -2.98138270e-08       2.48003796e-08       2.61990617e-07 
       3.60365566e-08       2.48003702e-08       2.61990632e-07 
       2.98030731e-08       2.48003700e-08       2.61990620e-07 
      -3.60473105e-08       2.48003794e-08       2.61990604e-07 
      -2.98138270e-08       2.48003796e-08       2.61990617e-07 
       3.89055772e-08       2.93142106e-08       3.09674748e-07 
       3.21758364e-08       2.93142105e-08       3.09674735e-07 
      -3.89169963e-08       2.93142203e-08       3.09674717e-07 
      -3.21872557e-08       2.93142204e-08       3.09674730e-07 
       3.89055772e-08       2.93142106e-08       3.09674748e-07 
       3.21758364e-08       2.93142105e-08       3.09674735e-07 
      -3.89169963e-08       2.93142203e-08       3.09674717e-07 
      -3.21872557e-08       2.93142204e-08       3.09674730e-07 
       4.17122843e-08       3.41698483e-08       3.60969601e-07 
       3.44970634e-08       3.41698481e-08       3.60969587e-07 
      -4.17243735e-08       3.41698582e-08       3.60969567e-07 
      -3.45091526e-08       3.41698584e-08       3.60969581e-07 
       4.17122843e-08       3.41698483e-08       3.60969601e-07 
       3.44970634e-08       3.41698481e-08       3.60969587e-07 
      -4.17243735e-08       3.41698582e-08       3.60969567e-07 
      -3.45091526e-08       3.41698584e-08       3.60969581e-07 
       4.44566788e-08       3.93597790e-08       4.15795920e-07 
       3.67667541e-08       3.93597788e-08       4.15795905e-07 
      -4.44694419e-08       3.93597893e-08       4.15795882e-07 
      -3.67795172e-08       3.93597895e-08       4.15795897e-07 
       4.44566788e-08       3.93597790e-08       4.15795920e-07 
       3.67667541e-08       3.93597788e-08       4.15795905e-07 
      -4.44694419e-08       3.93597893e-08       4.15795882e-07 
      -3.67795172e-08       3.93597895e-08       4.15795897e-07 
       4.71387600e-08       4.48764991e-08       4.74074433e-07 
       3.89849086e-08       4.48764989e-08       4.74074418e-07 
      -4.71522017e-08       4.48765096e-08       4.74074392e-07 
      -3.89983499e-08       4.48765098e-08       4.74074407e-07 
       4.71387600e-08       4.48764991e-08       4.74074433e-07 
       3.89849086e-08       4.48764989e-08       4.74074418e-07 
      -4.71522017e-08       4.48765096e-08       4.74074392e-07 
      -3.89983499e-08       4.48765098e-08       4.74074407e-07 
       4.97585284e-08       5.07125044e-08       5.35725870e-07 
       4.11515266e-08       5.07125042e-08       5.35725853e-07 
      -4.97726527e-08       5.07125152e-08       5.35725824e-07 
      -4.11656509e-08       5.07125155e-08       5.35725841e-07 
       4.97585284e-08       5.07125044e-08       5.35725870e-07 
       4.11515266e-08       5.07125042e-08       5.35725853e-07 
      -4.97726527e-08       5.07125152e-08       5.35725824e-07 
      -4.11656509e-08       5.07125155e-08       5.35725841e-07 
       5.23159844e-08       5.68602911e-08       6.00670957e-07 
       4.32666092e-08       5.68602908e-08       6.00670940e-07 
      -5.23307946e-08       5.68603022e-08       6.00670908e-07 
      -4.32814191e-08       5.68603025e-08       6.00670926e-07 
       5.23159844e-08       5.68602911e-08       6.00670957e-07 
       4.32666092e-08       5.68602908e-08       6.00670940e-07 
      -5.23307946e-08       5.68603022e-08       6.00670908e-07 
      -4.32814191e-08       5.68603025e-08       6.00670926e-07 
       5.48111274e-08       6.33123552e-08       6.68830425e-07 
       4.53301552e-08       6.33123549e-08       6.68830407e-07 
      -5.48266277e-08       6.33123666e-08       6.68830372e-07 
      -4.53456555e-08       6.33123668e-08       6.68830390e-07 
       5.48111274e-08       6.33123552e-08       6.68830425e-07 
       4.53301552e-08       6.33123549e-08       6.68830407e-07 
      -5.48266277e-08       6.33123666e-08       6.68830372e-07 
      -4.53456555e-08       6.33123668e-08       6.68830390e-07 
       5.72439578e-08       7.00611928e-08       7.40125002e-07 
       4.73421655e-08       7.00611924e-08       7.40124982e-07 
      -5.72601517e-08       7.00612044e-08       7.40124944e-07 
      -4.73583595e-08       7.00612047e-08       7.40124963e-07 
       5.72439578e-08       7.00611928e-08       7.40125002e-07 
       4.73421655e-08       7.00611924e-08       7.40124982e-07 
      -5.72601517e-08       7.00612044e-08       7.40124944e-07 
      -4.73583595e-08       7.00612047e-08       7.40124963e-07 
       5.96144751e-08       7.70992999e-08       8.14475415e-07 
       4.93026393e-08       7.70992995e-08       8.14475395e-07 
      -5.96313670e-08       7.70993118e-08       8.14475354e-07 
      -4.93195313e-08       7.70993121e-08       8.14475374e-07 
       5.96144751e-08       7.70992999e-08       8.14475415e-07 
       4.93026393e-08       7.70992995e-08       8.14475395e-07 
      -5.96313670e-08       7.70993118e-08       8.14475353e-07 
      -4.93195313e-08       7.70993121e-08       8.14475374e-07 
       6.19264711e-08       8.44193198e-08       8.91803948e-07 
       5.12147351e-08       8.44193195e-08       8.91803927e-07 
      -6.19438127e-08       8.44193317e-08       8.91803883e-07 
      -5.12320764e-08       8.44193321e-08       8.91803903e-07 
       6.19264711e-08       8.44193198e-08       8.91803948e-07 
       5.12147351e-08       8.44193195e-08       8.91803927e-07 
      -6.19438127e-08       8.44193317e-08       8.91803883e-07 
      -5.12320764e-08       8.44193321e-08       8.91803903e-07 
       6.41834843e-08       9.20144843e-08       9.72039101e-07 
       5.30813566e-08       9.20144839e-08       9.72039080e-07 
      -6.42012807e-08       9.20144962e-08       9.72039032e-07 
      -5.30991526e-08       9.20144965e-08       9.72039054e-07 
       6.41834843e-08       9.20144843e-08       9.72039101e-07 
       5.30813566e-08       9.20144839e-08       9.72039080e-07 
      -6.42012807e-08       9.20144962e-08       9.72039032e-07 
      -5.30991526e-08       9.20144965e-08       9.72039054e-07 
       6.63855158e-08       9.98781721e-08       1.05511093e-06 
       5.49025048e-08       9.98781717e-08       1.05511091e-06 
      -6.64037709e-08       9.98781839e-08       1.05511086e-06 
      -5.49207599e-08       9.98781843e-08       1.05511088e-06 
       6.63855158e-08       9.98781721e-08       1.05511093e-06 
       5.49025048e-08       9.98781717e-08       1.05511091e-06 
      -6.64037709e-08       9.98781839e-08       1.05511086e-06 
      -5.49207599e-08       9.98781843e-08       1.05511088e-06 
       6.85325632e-08       1.08003762e-07       1.14094949e-06 
       5.66781786e-08       1.08003762e-07       1.14094946e-06 
      -6.85512838e-08       1.08003774e-07       1.14094941e-06 
      -5.66968992e-08       1.08003774e-07       1.14094943e-06 
       6.85325632e-08       1.08003762e-07       1.14094949e-06 
       5.66781786e-08       1.08003762e-07       1.14094946e-06 
      -6.85512838e-08       1.08003774e-07       1.14094941e-06 
      -5.66968992e-08       1.08003774e-07       1.14094943e-06 
       7.06246288e-08       1.16384633e-07       1.22948483e-06 
       5.84083786e-08       1.16384633e-07       1.22948481e-06 
      -7.06438188e-08       1.16384645e-07       1.22948475e-06 
      -5.84275690e-08       1.16384645e-07       1.22948477e-06 
       7.06246288e-08       1.16384633e-07       1.22948483e-06 
       5.84083786e-08       1.16384633e-07       1.22948481e-06 
      -7.06438188e-08       1.16384645e-07       1.22948475e-06 
      -5.84275690e-08       1.16384645e-07       1.22948477e-06 
       7.26617118e-08       1.25014164e-07       1.32064701e-06 
       6.00931052e-08       1.25014164e-07       1.32064698e-06 
      -7.26813765e-08       1.25014176e-07       1.32064692e-06 
      -6.01127703e-08       1.25014177e-07       1.32064695e-06 
       7.26617118e-08       1.25014164e-07       1.32064701e-06 
       6.00931052e-08       1.25014164e-07       1.32064698e-06 
      -7.26813765e-08       1.25014176e-07       1.32064692e-06 
      -6.01127703e-08       1.25014177e-07       1.32064695e-06 
       7.46438120e-08       1.33885734e-07       1.41436608e-06 
       6.17323579e-08       1.33885734e-07       1.41436606e-06 
      -7.46639559e-08       1.33885746e-07       1.41436599e-06 
      -6.17525022e-08       1.33885747e-07       1.41436602e-06 
       7.46438120e-08       1.33885734e-07       1.41436608e-06 
       6.17323579e-08       1.33885734e-07       1.41436606e-06 
      -7.46639559e-08       1.33885746e-07       1.41436599e-06 
      -6.17525022e-08       1.33885747e-07       1.41436602e-06 
       7.65709305e-08       1.42992722e-07       1.51057210e-06 
       6.33261381e-08       1.42992721e-07       1.51057208e-06 
      -7.65915571e-08       1.42992734e-07       1.51057201e-06 
      -6.33467652e-08       1.42992734e-07       1.51057203e-06 
       7.65709305e-08       1.42992722e-07       1.51057210e-06 
       6.33261381e-08       1.42992721e-07       1.51057208e-06 
      -7.65915571e-08       1.42992734e-07       1.51057201e-06 
      -6.33467652e-08       1.42992734e-07       1.51057203e-06 
       7.84430658e-08       1.52328506e-07       1.60919513e-06 
       6.48744440e-08       1.52328506e-07       1.60919510e-06 
      -7.84641809e-08       1.52328518e-07       1.60919503e-06 
      -6.48955591e-08       1.52328518e-07       1.60919505e-06 
       7.84430658e-08       1.52328506e-07       1.60919513e-06 
       6.48744440e-08       1.52328506e-07       1.60919510e-06 
      -7.84641809e-08       1.52328518e-07       1.60919503e-06 
      -6.48955591e-08       1.52328518e-07       1.60919505e-06 
       8.02602189e-08       1.61886466e-07       1.71016521e-06 
       6.63772766e-08       1.61886465e-07       1.71016518e-06 
      -8.02818265e-08       1.61886478e-07       1.71016510e-06 
      -6.63988837e-08       1.61886478e-07       1.71016513e-06 
       8.02602189e-08       1.61886466e-07       1.71016521e-06 
       6.63772766e-08       1.61886465e-07       1.71016518e-06 
      -8.02818265e-08       1.61886478e-07       1.71016510e-06 
      -6.63988842e-08       1.61886478e-07       1.71016513e-06 
       8.20261401e-08       1.71660127e-07       1.81341395e-06 
       6.78377514e-08       1.71660127e-07       1.81341393e-06 
      -8.20480750e-08       1.71660139e-07       1.81341385e-06 
      -6.78596863e-08       1.71660139e-07       1.81341387e-06 
       8.20261401e-08       1.71660127e-07       1.81341395e-06 
       6.78377514e-08       1.71660127e-07       1.81341393e-06 
      -8.20480750e-08       1.71660139e-07       1.81341385e-06 
      -6.78596863e-08       1.71660139e-07       1.81341387e-06 
       8.37444087e-08       1.81643605e-07       1.91887919e-06 
       6.92588156e-08       1.81643604e-07       1.91887916e-06 
      -8.37666763e-08       1.81643616e-07       1.91887908e-06 
      -6.92810831e-08       1.81643617e-07       1.91887911e-06 
       8.37444087e-08       1.81643605e-07       1.91887919e-06 
       6.92588156e-08       1.81643604e-07       1.91887916e-06 
      -8.37666763e-08       1.81643616e-07       1.91887908e-06 
      -6.92810831e-08       1.81643617e-07       1.91887911e-06 
       8.54150266e-08       1.91831160e-07       2.02650030e-06 
       7.06404695e-08       1.91831159e-07       2.02650027e-06 
      -8.54376303e-08       1.91831171e-07       2.02650019e-06 
      -7.06630732e-08       1.91831172e-07       2.02650022e-06 
       8.54150266e-08       1.91831160e-07       2.02650030e-06 
       7.06404695e-08       1.91831159e-07       2.02650027e-06 
      -8.54376303e-08       1.91831171e-07       2.02650019e-06 
      -7.06630732e-08       1.91831172e-07       2.02650022e-06 
       8.70379915e-08       2.02217054e-07       2.13621667e-06 
       7.19827118e-08       2.02217054e-07       2.13621664e-06 
      -8.70609376e-08       2.02217065e-07       2.13621655e-06 
      -7.20056579e-08       2.02217066e-07       2.13621658e-06 
       8.70379915e-08       2.02217054e-07       2.13621667e-06 
       7.19827118e-08       2.02217054e-07       2.13621664e-06 
      -8.70609376e-08       2.02217065e-07       2.13621655e-06 
      -7.20056579e-08       2.02217066e-07       2.13621658e-06 
       8.86133051e-08       2.12795550e-07       2.24796766e-06 
       7.32855430e-08       2.12795549e-07       2.24796764e-06 
      -8.86365981e-08       2.12795561e-07       2.24796754e-06 
      -7.33088363e-08       2.12795562e-07       2.24796757e-06 
       8.86133051e-08       2.12795550e-07       2.24796766e-06 
       7.32855430e-08       2.12795549e-07       2.24796764e-06 
      -8.86365981e-08       2.12795561e-07       2.24796754e-06 
      -7.33088363e-08       2.12795562e-07       2.24796757e-06 
       9.01409667e-08       2.23560909e-07       2.36169268e-06 
       7.45489639e-08       2.23560908e-07       2.36169265e-06 
      -9.01646113e-08       2.23560919e-07       2.36169255e-06 
      -7.45726085e-08       2.23560920e-07       2.36169258e-06 
       9.01409667e-08       2.23560909e-07       2.36169268e-06 
       7.45489639e-08       2.23560908e-07       2.36169265e-06 
      -9.01646113e-08       2.23560919e-07       2.36169255e-06 
      -7.45726085e-08       2.23560920e-07       2.36169258e-06 
       9.16209770e-08       2.34507392e-07       2.47733109e-06 
       7.57729746e-08       2.34507391e-07       2.47733106e-06 
      -9.16449769e-08       2.34507402e-07       2.47733096e-06 
      -7.57969740e-08       2.34507403e-07       2.47733099e-06 
       9.16209770e-08       2.34507392e-07       2.47733109e-06 
       7.57729746e-08       2.34507391e-07       2.47733106e-06 
      -9.16449769e-08       2.34507402e-07       2.47733096e-06 
      -7.57969740e-08       2.34507403e-07       2.47733099e-06 
       9.30533357e-08       2.45629261e-07       2.59482227e-06 
       7.69575750e-08       2.45629260e-07       2.59482224e-06 
      -9.30776944e-08       2.45629271e-07       2.59482214e-06 
      -7.69819333e-08       2.45629272e-07       2.59482217e-06 
       9.30533357e-08       2.45629261e-07       2.59482227e-06 
       7.69575750e-08       2.45629260e-07       2.59482224e-06 