# vtk DataFile Version 2.0
./output/onsasExample_nonLinearCantileverBlade_staitc3D_no_pitch numElements=10/onsasExample_nonLinearCantileverBlade_staitc3D_no_pitch numElements=10_0027.vtk
ASCII
DATASET UNSTRUCTURED_GRID

POINTS 800 float
      -8.914987e-25      -7.180703e-02      -7.180703e-02 
       1.117144e-24       7.180703e-02      -7.180703e-02 
       8.914987e-25       7.180703e-02       7.180703e-02 
      -1.117144e-24      -7.180703e-02       7.180703e-02 
       1.000000e-01      -7.180703e-02      -7.180703e-02 
       1.000000e-01       7.180703e-02      -7.180703e-02 
       1.000000e-01       7.180703e-02       7.180703e-02 
       1.000000e-01      -7.180703e-02       7.180703e-02 
       1.000000e-01      -7.180703e-02      -7.180703e-02 
       1.000000e-01       7.180703e-02      -7.180703e-02 
       1.000000e-01       7.180703e-02       7.180703e-02 
       1.000000e-01      -7.180703e-02       7.180703e-02 
       2.000000e-01      -7.180703e-02      -7.180703e-02 
       2.000000e-01       7.180704e-02      -7.180703e-02 
       2.000000e-01       7.180704e-02       7.180703e-02 
       2.000000e-01      -7.180703e-02       7.180703e-02 
       2.000000e-01      -7.180703e-02      -7.180703e-02 
       2.000000e-01       7.180704e-02      -7.180703e-02 
       2.000000e-01       7.180704e-02       7.180703e-02 
       2.000000e-01      -7.180703e-02       7.180703e-02 
       3.000000e-01      -7.180703e-02      -7.180703e-02 
       3.000000e-01       7.180704e-02      -7.180703e-02 
       3.000000e-01       7.180704e-02       7.180703e-02 
       3.000000e-01      -7.180703e-02       7.180703e-02 
       3.000000e-01      -7.180703e-02      -7.180703e-02 
       3.000000e-01       7.180704e-02      -7.180703e-02 
       3.000000e-01       7.180704e-02       7.180703e-02 
       3.000000e-01      -7.180703e-02       7.180703e-02 
       4.000000e-01      -7.180702e-02      -7.180703e-02 
       4.000000e-01       7.180704e-02      -7.180703e-02 
       4.000000e-01       7.180704e-02       7.180703e-02 
       4.000000e-01      -7.180702e-02       7.180703e-02 
       4.000000e-01      -7.180702e-02      -7.180703e-02 
       4.000000e-01       7.180704e-02      -7.180703e-02 
       4.000000e-01       7.180704e-02       7.180703e-02 
       4.000000e-01      -7.180702e-02       7.180703e-02 
       5.000000e-01      -7.180702e-02      -7.180703e-02 
       5.000000e-01       7.180705e-02      -7.180703e-02 
       5.000000e-01       7.180705e-02       7.180703e-02 
       5.000000e-01      -7.180702e-02       7.180703e-02 
       5.000000e-01      -7.180702e-02      -7.180703e-02 
       5.000000e-01       7.180705e-02      -7.180703e-02 
       5.000000e-01       7.180705e-02       7.180703e-02 
       5.000000e-01      -7.180702e-02       7.180703e-02 
       6.000000e-01      -7.180701e-02      -7.180703e-02 
       6.000000e-01       7.180705e-02      -7.180703e-02 
       6.000000e-01       7.180705e-02       7.180703e-02 
       6.000000e-01      -7.180701e-02       7.180703e-02 
       6.000000e-01      -7.180701e-02      -7.180703e-02 
       6.000000e-01       7.180705e-02      -7.180703e-02 
       6.000000e-01       7.180705e-02       7.180703e-02 
       6.000000e-01      -7.180701e-02       7.180703e-02 
       7.000000e-01      -7.180700e-02      -7.180703e-02 
       7.000000e-01       7.180706e-02      -7.180703e-02 
       7.000000e-01       7.180706e-02       7.180703e-02 
       7.000000e-01      -7.180700e-02       7.180703e-02 
       7.000000e-01      -7.180700e-02      -7.180703e-02 
       7.000000e-01       7.180706e-02      -7.180703e-02 
       7.000000e-01       7.180706e-02       7.180703e-02 
       7.000000e-01      -7.180700e-02       7.180703e-02 
       8.000000e-01      -7.180700e-02      -7.180703e-02 
       8.000000e-01       7.180707e-02      -7.180703e-02 
       8.000000e-01       7.180707e-02       7.180703e-02 
       8.000000e-01      -7.180700e-02       7.180703e-02 
       8.000000e-01      -7.180700e-02      -7.180703e-02 
       8.000000e-01       7.180707e-02      -7.180703e-02 
       8.000000e-01       7.180707e-02       7.180703e-02 
       8.000000e-01      -7.180700e-02       7.180703e-02 
       9.000000e-01      -7.180699e-02      -7.180703e-02 
       9.000000e-01       7.180708e-02      -7.180703e-02 
       9.000000e-01       7.180708e-02       7.180703e-02 
       9.000000e-01      -7.180699e-02       7.180703e-02 
       9.000000e-01      -7.180699e-02      -7.180703e-02 
       9.000000e-01       7.180708e-02      -7.180703e-02 
       9.000000e-01       7.180708e-02       7.180703e-02 
       9.000000e-01      -7.180699e-02       7.180703e-02 
       1.000000e+00      -7.180698e-02      -7.180703e-02 
       1.000000e+00       7.180709e-02      -7.180703e-02 
       1.000000e+00       7.180709e-02       7.180703e-02 
       1.000000e+00      -7.180698e-02       7.180703e-02 
       1.000000e+00      -7.180698e-02      -7.180703e-02 
       1.000000e+00       7.180709e-02      -7.180703e-02 
       1.000000e+00       7.180709e-02       7.180703e-02 
       1.000000e+00      -7.180698e-02       7.180703e-02 
       1.100000e+00      -7.180696e-02      -7.180704e-02 
       1.100000e+00       7.180710e-02      -7.180704e-02 
       1.100000e+00       7.180710e-02       7.180703e-02 
       1.100000e+00      -7.180696e-02       7.180703e-02 
       1.100000e+00      -7.180696e-02      -7.180704e-02 
       1.100000e+00       7.180710e-02      -7.180704e-02 
       1.100000e+00       7.180710e-02       7.180703e-02 
       1.100000e+00      -7.180696e-02       7.180703e-02 
       1.200000e+00      -7.180695e-02      -7.180704e-02 
       1.200000e+00       7.180711e-02      -7.180704e-02 
       1.200000e+00       7.180711e-02       7.180703e-02 
       1.200000e+00      -7.180695e-02       7.180703e-02 
       1.200000e+00      -7.180695e-02      -7.180704e-02 
       1.200000e+00       7.180711e-02      -7.180704e-02 
       1.200000e+00       7.180711e-02       7.180703e-02 
       1.200000e+00      -7.180695e-02       7.180703e-02 
       1.300000e+00      -7.180694e-02      -7.180704e-02 
       1.300000e+00       7.180713e-02      -7.180704e-02 
       1.300000e+00       7.180713e-02       7.180703e-02 
       1.300000e+00      -7.180694e-02       7.180703e-02 
       1.300000e+00      -7.180694e-02      -7.180704e-02 
       1.300000e+00       7.180713e-02      -7.180704e-02 
       1.300000e+00       7.180713e-02       7.180703e-02 
       1.300000e+00      -7.180694e-02       7.180703e-02 
       1.400000e+00      -7.180692e-02      -7.180704e-02 
       1.400000e+00       7.180714e-02      -7.180704e-02 
       1.400000e+00       7.180714e-02       7.180703e-02 
       1.400000e+00      -7.180692e-02       7.180703e-02 
       1.400000e+00      -7.180692e-02      -7.180704e-02 
       1.400000e+00       7.180714e-02      -7.180704e-02 
       1.400000e+00       7.180714e-02       7.180703e-02 
       1.400000e+00      -7.180692e-02       7.180703e-02 
       1.500000e+00      -7.180691e-02      -7.180704e-02 
       1.500000e+00       7.180716e-02      -7.180704e-02 
       1.500000e+00       7.180716e-02       7.180703e-02 
       1.500000e+00      -7.180691e-02       7.180703e-02 
       1.500000e+00      -7.180691e-02      -7.180704e-02 
       1.500000e+00       7.180716e-02      -7.180704e-02 
       1.500000e+00       7.180716e-02       7.180703e-02 
       1.500000e+00      -7.180691e-02       7.180703e-02 
       1.600000e+00      -7.180689e-02      -7.180704e-02 
       1.600000e+00       7.180717e-02      -7.180704e-02 
       1.600000e+00       7.180717e-02       7.180703e-02 
       1.600000e+00      -7.180689e-02       7.180703e-02 
       1.600000e+00      -7.180689e-02      -7.180704e-02 
       1.600000e+00       7.180717e-02      -7.180704e-02 
       1.600000e+00       7.180717e-02       7.180703e-02 
       1.600000e+00      -7.180689e-02       7.180703e-02 
       1.700000e+00      -7.180688e-02      -7.180704e-02 
       1.700000e+00       7.180719e-02      -7.180704e-02 
       1.700000e+00       7.180719e-02       7.180703e-02 
       1.700000e+00      -7.180688e-02       7.180703e-02 
       1.700000e+00      -7.180688e-02      -7.180704e-02 
       1.700000e+00       7.180719e-02      -7.180704e-02 
       1.700000e+00       7.180719e-02       7.180703e-02 
       1.700000e+00      -7.180688e-02       7.180703e-02 
       1.800000e+00      -7.180686e-02      -7.180704e-02 
       1.800000e+00       7.180721e-02      -7.180704e-02 
       1.800000e+00       7.180721e-02       7.180703e-02 
       1.800000e+00      -7.180686e-02       7.180703e-02 
       1.800000e+00      -7.180686e-02      -7.180704e-02 
       1.800000e+00       7.180721e-02      -7.180704e-02 
       1.800000e+00       7.180721e-02       7.180703e-02 
       1.800000e+00      -7.180686e-02       7.180703e-02 
       1.900000e+00      -7.180684e-02      -7.180704e-02 
       1.900000e+00       7.180723e-02      -7.180704e-02 
       1.900000e+00       7.180723e-02       7.180703e-02 
       1.900000e+00      -7.180684e-02       7.180703e-02 
       1.900000e+00      -7.180684e-02      -7.180704e-02 
       1.900000e+00       7.180723e-02      -7.180704e-02 
       1.900000e+00       7.180723e-02       7.180703e-02 
       1.900000e+00      -7.180684e-02       7.180703e-02 
       2.000000e+00      -7.180682e-02      -7.180704e-02 
       2.000000e+00       7.180725e-02      -7.180704e-02 
       2.000000e+00       7.180725e-02       7.180703e-02 
       2.000000e+00      -7.180682e-02       7.180703e-02 
       2.000000e+00      -7.180682e-02      -7.180704e-02 
       2.000000e+00       7.180725e-02      -7.180704e-02 
       2.000000e+00       7.180725e-02       7.180703e-02 
       2.000000e+00      -7.180682e-02       7.180703e-02 
       2.100000e+00      -7.180680e-02      -7.180704e-02 
[...]
POINT_DATA       800 
VECTORS Displacements float
      -8.91498750e-25       1.38777878e-17       0.00000000e+00 
       1.11714405e-24       1.38777878e-17      -1.38777878e-17 
       8.91498750e-25      -1.38777878e-17       0.00000000e+00 
      -1.11714405e-24      -1.38777878e-17       1.38777878e-17 
       8.41108044e-10       6.08258124e-10      -2.03437545e-11 
      -9.00403294e-10       6.08258138e-10      -2.03437406e-11 
      -8.42156844e-10       6.08258097e-10      -2.03437406e-11 
       8.99354494e-10       6.08258083e-10      -2.03437545e-11 
       8.41108044e-10       6.08258124e-10      -2.03437545e-11 
      -9.00403294e-10       6.08258138e-10      -2.03437406e-11 
      -8.42156844e-10       6.08258097e-10      -2.03437406e-11 
       8.99354494e-10       6.08258083e-10      -2.03437545e-11 
       1.66604439e-09       2.41749899e-09      -8.08555028e-11 
      -1.78351589e-09       2.41749896e-09      -8.08554473e-11 
      -1.66814218e-09       2.41749890e-09      -8.08554473e-11 
       1.78141810e-09       2.41749892e-09      -8.08555028e-11 
       1.66604439e-09       2.41749899e-09      -8.08555028e-11 
      -1.78351589e-09       2.41749896e-09      -8.08554473e-11 
      -1.66814218e-09       2.41749890e-09      -8.08554473e-11 
       1.78141810e-09       2.41749892e-09      -8.08555028e-11 
       2.47480908e-09       5.40442241e-09      -1.80755910e-10 
      -2.64933780e-09       5.40442234e-09      -1.80755827e-10 
      -2.47795601e-09       5.40442224e-09      -1.80755827e-10 
       2.64619088e-09       5.40442233e-09      -1.80755910e-10 
       2.47480908e-09       5.40442241e-09      -1.80755910e-10 
      -2.64933780e-09       5.40442234e-09      -1.80755827e-10 
      -2.47795601e-09       5.40442224e-09      -1.80755827e-10 
       2.64619088e-09       5.40442233e-09      -1.80755910e-10 
       3.26740213e-09       9.54572814e-09      -3.19265697e-10 
      -3.49786894e-09       9.54572800e-09      -3.19265586e-10 
      -3.27159821e-09       9.54572789e-09      -3.19265586e-10 
       3.49367285e-09       9.54572803e-09      -3.19265697e-10 
       3.26740213e-09       9.54572814e-09      -3.19265697e-10 
      -3.49786894e-09       9.54572800e-09      -3.19265586e-10 
      -3.27159821e-09       9.54572789e-09      -3.19265586e-10 
       3.49367285e-09       9.54572803e-09      -3.19265697e-10 
       4.04382339e-09       1.48181160e-08      -4.95605570e-10 
      -4.32910946e-09       1.48181158e-08      -4.95605432e-10 
      -4.04906902e-09       1.48181156e-08      -4.95605432e-10 
       4.32386393e-09       1.48181159e-08      -4.95605570e-10 
       4.04382339e-09       1.48181160e-08      -4.95605570e-10 
      -4.32910946e-09       1.48181158e-08      -4.95605432e-10 
      -4.04906902e-09       1.48181156e-08      -4.95605432e-10 
       4.32386393e-09       1.48181159e-08      -4.95605570e-10 
       4.80407314e-09       2.11982858e-08      -7.08996223e-10 
      -5.14305920e-09       2.11982854e-08      -7.08996042e-10 
      -4.81036810e-09       2.11982853e-08      -7.08996042e-10 
       5.13676424e-09       2.11982856e-08      -7.08996223e-10 
       4.80407314e-09       2.11982858e-08      -7.08996223e-10 
      -5.14305920e-09       2.11982854e-08      -7.08996042e-10 
      -4.81036810e-09       2.11982853e-08      -7.08996042e-10 
       5.13676424e-09       2.11982856e-08      -7.08996223e-10 
       5.54815105e-09       2.86629372e-08      -9.58658347e-10 
      -5.93971827e-09       2.86629368e-08      -9.58658153e-10 
      -5.55549584e-09       2.86629366e-08      -9.58658153e-10 
       5.93237348e-09       2.86629370e-08      -9.58658347e-10 
       5.54815105e-09       2.86629372e-08      -9.58658347e-10 
      -5.93971827e-09       2.86629368e-08      -9.58658153e-10 
      -5.55549584e-09       2.86629366e-08      -9.58658153e-10 
       5.93237348e-09       2.86629370e-08      -9.58658347e-10 
       6.27605756e-09       3.71887701e-08      -1.24381268e-09 
      -6.71908640e-09       3.71887696e-08      -1.24381244e-09 
      -6.28445185e-09       3.71887694e-08      -1.24381244e-09 
       6.71069211e-09       3.71887700e-08      -1.24381268e-09 
       6.27605756e-09       3.71887701e-08      -1.24381268e-09 
      -6.71908640e-09       3.71887696e-08      -1.24381244e-09 
      -6.28445185e-09       3.71887694e-08      -1.24381244e-09 
       6.71069211e-09       3.71887700e-08      -1.24381268e-09 
       6.98779212e-09       4.67524844e-08      -1.56367989e-09 
      -7.48116413e-09       4.67524837e-08      -1.56367963e-09 
      -6.99723646e-09       4.67524835e-08      -1.56367963e-09 
       7.47171980e-09       4.67524842e-08      -1.56367989e-09 
       6.98779212e-09       4.67524844e-08      -1.56367989e-09 
      -7.48116413e-09       4.67524837e-08      -1.56367963e-09 
      -6.99723646e-09       4.67524835e-08      -1.56367963e-09 
       7.47171980e-09       4.67524842e-08      -1.56367989e-09 
       7.68335551e-09       5.73307797e-08      -1.91748070e-09 
      -8.22595103e-09       5.73307788e-08      -1.91748041e-09 
      -7.69384956e-09       5.73307786e-08      -1.91748041e-09 
       8.21545654e-09       5.73307794e-08      -1.91748070e-09 
       7.68335529e-09       5.73307797e-08      -1.91748070e-09 
      -8.22595092e-09       5.73307788e-08      -1.91748042e-09 
      -7.69384956e-09       5.73307786e-08      -1.91748042e-09 
       8.21545676e-09       5.73307794e-08      -1.91748070e-09 
       8.36378589e-09       6.89007646e-08      -2.30444949e-09 
      -8.95416918e-09       6.89007636e-08      -2.30444919e-09 
      -8.37495406e-09       6.89007633e-08      -2.30444919e-09 
       8.94300078e-09       6.89007643e-08      -2.30444949e-09 
       8.36378589e-09       6.89007646e-08      -2.30444949e-09 
      -8.95416918e-09       6.89007636e-08      -2.30444919e-09 
      -8.37495406e-09       6.89007633e-08      -2.30444919e-09 
       8.94300078e-09       6.89007643e-08      -2.30444949e-09 
       9.02974739e-09       8.14411828e-08      -2.72387528e-09 
      -9.66691638e-09       8.14411816e-08      -2.72387497e-09 
      -9.04158948e-09       8.14411813e-08      -2.72387497e-09 
       9.65507430e-09       8.14411825e-08      -2.72387528e-09 
       9.02974739e-09       8.14411828e-08      -2.72387528e-09 
      -9.66691638e-09       8.14411816e-08      -2.72387497e-09 
      -9.04158948e-09       8.14411813e-08      -2.72387497e-09 
       9.65507430e-09       8.14411825e-08      -2.72387528e-09 
       9.68123892e-09       9.49311867e-08      -3.17506087e-09 
      -1.03641935e-08       9.49311854e-08      -3.17506052e-09 
      -9.69375558e-09       9.49311851e-08      -3.17506052e-09 
       1.03516768e-08       9.49311865e-08      -3.17506087e-09 
       9.68123892e-09       9.49311867e-08      -3.17506087e-09 
      -1.03641935e-08       9.49311854e-08      -3.17506052e-09 
      -9.69375558e-09       9.49311851e-08      -3.17506052e-09 
       1.03516768e-08       9.49311865e-08      -3.17506087e-09 
       1.03182614e-08       1.09349929e-07      -3.65730894e-09 
      -1.10459997e-08       1.09349927e-07      -3.65730859e-09 
      -1.03314524e-08       1.09349927e-07      -3.65730859e-09 
       1.10328087e-08       1.09349929e-07      -3.65730894e-09 
       1.03182614e-08       1.09349929e-07      -3.65730894e-09 
      -1.10459997e-08       1.09349927e-07      -3.65730859e-09 
      -1.03314524e-08       1.09349927e-07      -3.65730859e-09 
       1.10328087e-08       1.09349929e-07      -3.65730894e-09 
       1.09408140e-08       1.24676562e-07      -4.16992227e-09 
      -1.17123358e-08       1.24676560e-07      -4.16992188e-09 
      -1.09546803e-08       1.24676560e-07      -4.16992188e-09 
       1.16984693e-08       1.24676561e-07      -4.16992227e-09 
       1.09408140e-08       1.24676562e-07      -4.16992227e-09 
      -1.17123358e-08       1.24676560e-07      -4.16992188e-09 
      -1.09546803e-08       1.24676560e-07      -4.16992188e-09 
       1.16984693e-08       1.24676561e-07      -4.16992227e-09 
       1.15488974e-08       1.40890237e-07      -4.71220356e-09 
      -1.23632011e-08       1.40890236e-07      -4.71220316e-09 
      -1.15634391e-08       1.40890235e-07      -4.71220316e-09 
       1.23486594e-08       1.40890237e-07      -4.71220356e-09 
       1.15488974e-08       1.40890237e-07      -4.71220356e-09 
      -1.23632011e-08       1.40890236e-07      -4.71220316e-09 
      -1.15634391e-08       1.40890235e-07      -4.71220316e-09 
       1.23486594e-08       1.40890237e-07      -4.71220356e-09 
       1.21425112e-08       1.57970109e-07      -5.28345555e-09 
      -1.29985958e-08       1.57970107e-07      -5.28345512e-09 
      -1.21577284e-08       1.57970106e-07      -5.28345512e-09 
       1.29833786e-08       1.57970109e-07      -5.28345555e-09 
       1.21425112e-08       1.57970109e-07      -5.28345555e-09 
      -1.29985958e-08       1.57970107e-07      -5.28345512e-09 
      -1.21577284e-08       1.57970106e-07      -5.28345512e-09 
       1.29833786e-08       1.57970109e-07      -5.28345555e-09 
       1.27216555e-08       1.75895328e-07      -5.88298096e-09 
      -1.36185199e-08       1.75895326e-07      -5.88298053e-09 
      -1.27375486e-08       1.75895325e-07      -5.88298053e-09 
       1.36026270e-08       1.75895328e-07      -5.88298096e-09 
       1.27216555e-08       1.75895328e-07      -5.88298096e-09 
      -1.36185199e-08       1.75895326e-07      -5.88298053e-09 
      -1.27375486e-08       1.75895325e-07      -5.88298053e-09 
       1.36026270e-08       1.75895328e-07      -5.88298096e-09 
       1.32863307e-08       1.94645048e-07      -6.51008257e-09 
      -1.42229735e-08       1.94645045e-07      -6.51008210e-09 
      -1.33028994e-08       1.94645045e-07      -6.51008210e-09 
       1.42064045e-08       1.94645048e-07      -6.51008257e-09 
       1.32863307e-08       1.94645048e-07      -6.51008257e-09 
      -1.42229735e-08       1.94645045e-07      -6.51008210e-09 
      -1.33028994e-08       1.94645045e-07      -6.51008210e-09 
       1.42064045e-08       1.94645048e-07      -6.51008257e-09 
       1.38365359e-08       2.14198421e-07      -7.16406309e-09 
      -1.48119566e-08       2.14198418e-07      -7.16406259e-09 
      -1.38537812e-08       2.14198417e-07      -7.16406259e-09 
       1.47947112e-08       2.14198420e-07      -7.16406309e-09 
       1.38365359e-08       2.14198421e-07      -7.16406309e-09 
      -1.48119566e-08       2.14198418e-07      -7.16406259e-09 
      -1.38537815e-08       2.14198417e-07      -7.16406259e-09 
       1.47947112e-08       2.14198420e-07      -7.16406309e-09 
       1.43732555e-08       2.34535007e-07      -7.84423891e-09 
      -1.53862469e-08       2.34535004e-07      -7.84423841e-09 
      -1.43909129e-08       2.34535004e-07      -7.84423841e-09 
       1.53685891e-08       2.34535007e-07      -7.84423891e-09 
       1.43732555e-08       2.34535007e-07      -7.84423891e-09 
      -1.53862469e-08       2.34535004e-07      -7.84423841e-09 
      -1.43909129e-08       2.34535004e-07      -7.84423841e-09 
       1.53685891e-08       2.34535007e-07      -7.84423891e-09 
       1.48972075e-08       2.55636004e-07      -8.54998114e-09 
      -1.59468865e-08       2.55636001e-07      -8.54998061e-09 
      -1.49152775e-08       2.55636001e-07      -8.54998061e-09 
       1.59288165e-08       2.55636004e-07      -8.54998114e-09 
       1.48972075e-08       2.55636004e-07      -8.54998114e-09 
      -1.59468865e-08       2.55636001e-07      -8.54998061e-09 
      -1.49152775e-08       2.55636001e-07      -8.54998061e-09 
       1.59288165e-08       2.55636004e-07      -8.54998114e-09 
       1.54083928e-08       2.77483017e-07      -9.28067453e-09 
      -1.64938756e-08       2.77483013e-07      -9.28067401e-09 
      -1.54268749e-08       2.77483013e-07      -9.28067401e-09 
       1.64753935e-08       2.77483016e-07      -9.28067453e-09 
       1.54083928e-08       2.77483017e-07      -9.28067453e-09 
      -1.64938756e-08       2.77483013e-07      -9.28067401e-09 
      -1.54268749e-08       2.77483013e-07      -9.28067401e-09 
       1.64753935e-08       2.77483016e-07      -9.28067453e-09 
       1.59068105e-08       3.00057650e-07      -1.00357039e-08 
      -1.70272147e-08       3.00057646e-07      -1.00357033e-08 
      -1.59257061e-08       3.00057646e-07      -1.00357033e-08 
       1.70083192e-08       3.00057650e-07      -1.00357039e-08 
       1.59068105e-08       3.00057650e-07      -1.00357039e-08 
      -1.70272147e-08       3.00057646e-07      -1.00357033e-08 
      -1.59257061e-08       3.00057646e-07      -1.00357033e-08 
       1.70083192e-08       3.00057650e-07      -1.00357039e-08 
       1.63924612e-08       3.23341509e-07      -1.08144539e-08 
      -1.75469030e-08       3.23341505e-07      -1.08144534e-08 
      -1.64117702e-08       3.23341504e-07      -1.08144534e-08 
       1.75275945e-08       3.23341508e-07      -1.08144539e-08 
       1.63924612e-08       3.23341509e-07      -1.08144539e-08 
      -1.75469030e-08       3.23341505e-07      -1.08144534e-08 
      -1.64117702e-08       3.23341504e-07      -1.08144534e-08 
       1.75275945e-08       3.23341508e-07      -1.08144539e-08 
       1.68653442e-08       3.47316198e-07      -1.16163094e-08 
      -1.80529409e-08       3.47316194e-07      -1.16163088e-08 
      -1.68850671e-08       3.47316194e-07      -1.16163088e-08 
       1.80332185e-08       3.47316198e-07      -1.16163094e-08 
       1.68653442e-08       3.47316198e-07      -1.16163094e-08 
      -1.80529409e-08       3.47316194e-07      -1.16163088e-08 
      -1.68850671e-08       3.47316194e-07      -1.16163088e-08 
       1.80332185e-08       3.47316198e-07      -1.16163094e-08 
       1.73254602e-08       3.71963324e-07      -1.24406552e-08 
      -1.85453288e-08       3.71963319e-07      -1.24406546e-08 
      -1.73455974e-08       3.71963319e-07      -1.24406546e-08 
       1.85251916e-08       3.71963323e-07      -1.24406552e-08 
       1.73254602e-08       3.71963324e-07      -1.24406552e-08 
      -1.85453288e-08       3.71963319e-07      -1.24406546e-08 
      -1.73455974e-08       3.71963319e-07      -1.24406546e-08 
       1.85251916e-08       3.71963323e-07      -1.24406552e-08 
       1.77728099e-08       3.97264490e-07      -1.32868759e-08 
      -1.90240654e-08       3.97264485e-07      -1.32868753e-08 
      -1.77933606e-08       3.97264485e-07      -1.32868753e-08 
       1.90035148e-08       3.97264490e-07      -1.32868759e-08 
       1.77728099e-08       3.97264490e-07      -1.32868759e-08 
      -1.90240654e-08       3.97264485e-07      -1.32868753e-08 
      -1.77933606e-08       3.97264485e-07      -1.32868753e-08 
       1.90035148e-08       3.97264490e-07      -1.32868759e-08 
       1.82073912e-08       4.23201302e-07      -1.41543565e-08 
      -1.94891521e-08       4.23201298e-07      -1.41543558e-08 
      -1.82283570e-08       4.23201297e-07      -1.41543558e-08 
       1.94681866e-08       4.23201302e-07      -1.41543565e-08 
       1.82073912e-08       4.23201302e-07      -1.41543565e-08 
      -1.94891521e-08       4.23201298e-07      -1.41543558e-08 
      -1.82283570e-08       4.23201297e-07      -1.41543558e-08 
       1.94681866e-08       4.23201302e-07      -1.41543565e-08 
       1.86292057e-08       4.49755366e-07      -1.50424815e-08 
      -1.99405887e-08       4.49755361e-07      -1.50424809e-08 
      -1.86505864e-08       4.49755361e-07      -1.50424809e-08 
       1.99192076e-08       4.49755366e-07      -1.50424815e-08 
       1.86292053e-08       4.49755366e-07      -1.50424815e-08 
      -1.99405887e-08       4.49755361e-07      -1.50424809e-08 
      -1.86505864e-08       4.49755361e-07      -1.50424809e-08 
       1.99192076e-08       4.49755366e-07      -1.50424815e-08 
       1.90391924e-08       4.76908695e-07      -1.59506495e-08 
      -2.03791957e-08       4.76908689e-07      -1.59506489e-08 
      -1.90608116e-08       4.76908689e-07      -1.59506489e-08 
       2.03575770e-08       4.76908695e-07      -1.59506495e-08 
       1.90391924e-08       4.76908695e-07      -1.59506495e-08 
      -2.03791957e-08       4.76908689e-07      -1.59506489e-08 
      -1.90608116e-08       4.76908689e-07      -1.59506489e-08 
       2.03575770e-08       4.76908695e-07      -1.59506495e-08 
       1.94381147e-08       5.04644938e-07      -1.68783136e-08 
      -2.08059725e-08       5.04644932e-07      -1.68783130e-08 
      -1.94599719e-08       5.04644932e-07      -1.68783130e-08 
       2.07841153e-08       5.04644937e-07      -1.68783136e-08 
       1.94381147e-08       5.04644938e-07      -1.68783136e-08 
      -2.08059725e-08       5.04644932e-07      -1.68783130e-08 
      -1.94599719e-08       5.04644932e-07      -1.68783130e-08 
       2.07841153e-08       5.04644937e-07      -1.68783136e-08 
       1.98259724e-08       5.32948152e-07      -1.78249406e-08 
      -2.12209184e-08       5.32948146e-07      -1.78249399e-08 
      -1.98480672e-08       5.32948146e-07      -1.78249399e-08 
       2.11988236e-08       5.32948152e-07      -1.78249406e-08 
       1.98259724e-08       5.32948152e-07      -1.78249406e-08 
      -2.12209184e-08       5.32948146e-07      -1.78249399e-08 
      -1.98480672e-08       5.32948146e-07      -1.78249399e-08 
       2.11988236e-08       5.32948152e-07      -1.78249406e-08 
       2.02027648e-08       5.61802396e-07      -1.87899973e-08 
      -2.16240341e-08       5.61802390e-07      -1.87899966e-08 
      -2.02250985e-08       5.61802390e-07      -1.87899966e-08 
       2.16017004e-08       5.61802396e-07      -1.87899973e-08 
       2.02027648e-08       5.61802396e-07      -1.87899973e-08 
      -2.16240341e-08       5.61802390e-07      -1.87899966e-08 
      -2.02250985e-08       5.61802390e-07      -1.87899966e-08 
       2.16017004e-08       5.61802396e-07      -1.87899973e-08 
       2.05684922e-08       5.91191727e-07      -1.97729505e-08 
      -2.20153198e-08       5.91191721e-07      -1.97729498e-08 
      -2.05910653e-08       5.91191721e-07      -1.97729498e-08 
       2.19927472e-08       5.91191727e-07      -1.97729505e-08 
       2.05684922e-08       5.91191727e-07      -1.97729505e-08 
      -2.20153198e-08       5.91191721e-07      -1.97729498e-08 
      -2.05910653e-08       5.91191721e-07      -1.97729498e-08 
       2.19927472e-08       5.91191727e-07      -1.97729505e-08 
       2.09231543e-08       6.21100204e-07      -2.07732670e-08 
      -2.23947754e-08       6.21100197e-07      -2.07732662e-08 
      -2.09459672e-08       6.21100197e-07      -2.07732662e-08 
       2.23719625e-08       6.21100203e-07      -2.07732670e-08 
       2.09231543e-08       6.21100204e-07      -2.07732670e-08 
      -2.23947754e-08       6.21100197e-07      -2.07732662e-08 
      -2.09459672e-08       6.21100197e-07      -2.07732662e-08 
       2.23719625e-08       6.21100203e-07      -2.07732670e-08 
       2.12667519e-08       6.51511883e-07      -2.17904135e-08 
      -2.27624000e-08       6.51511876e-07      -2.17904128e-08 
      -2.12898046e-08       6.51511876e-07      -2.17904128e-08 
       2.27393473e-08       6.51511882e-07      -2.17904135e-08 
       2.12667519e-08       6.51511883e-07      -2.17904135e-08 
      -2.27624000e-08       6.51511876e-07      -2.17904128e-08 
      -2.12898046e-08       6.51511876e-07      -2.17904128e-08 
       2.27393473e-08       6.51511882e-07      -2.17904135e-08 
       2.15992850e-08       6.82410822e-07      -2.28238569e-08 
      -2.31181936e-08       6.82410815e-07      -2.28238562e-08 
      -2.16225766e-08       6.82410815e-07      -2.28238562e-08 
       2.30949024e-08       6.82410822e-07      -2.28238569e-08 
       2.15992850e-08       6.82410822e-07      -2.28238569e-08 
      -2.31181936e-08       6.82410815e-07      -2.28238562e-08 