# vtk DataFile Version 2.0
./output/onsasExample_nonLinearCantileverBlade_staitc3D_no_pitch numElements=10/onsasExample_nonLinearCantileverBlade_staitc3D_no_pitch numElements=10_0006.vtk
ASCII
DATASET UNSTRUCTURED_GRID

POINTS 800 float
      -8.396277e-27      -7.180703e-02      -7.180703e-02 
       3.601121e-25       7.180703e-02      -7.180703e-02 
       8.396277e-27       7.180703e-02       7.180703e-02 
      -3.601121e-25      -7.180703e-02       7.180703e-02 
       1.000000e-01      -7.180703e-02      -7.180703e-02 
       1.000000e-01       7.180703e-02      -7.180703e-02 
       1.000000e-01       7.180703e-02       7.180703e-02 
       1.000000e-01      -7.180703e-02       7.180703e-02 
       1.000000e-01      -7.180703e-02      -7.180703e-02 
       1.000000e-01       7.180703e-02      -7.180703e-02 
       1.000000e-01       7.180703e-02       7.180703e-02 
       1.000000e-01      -7.180703e-02       7.180703e-02 
       2.000000e-01      -7.180703e-02      -7.180703e-02 
       2.000000e-01       7.180703e-02      -7.180703e-02 
       2.000000e-01       7.180703e-02       7.180703e-02 
       2.000000e-01      -7.180703e-02       7.180703e-02 
       2.000000e-01      -7.180703e-02      -7.180703e-02 
       2.000000e-01       7.180703e-02      -7.180703e-02 
       2.000000e-01       7.180703e-02       7.180703e-02 
       2.000000e-01      -7.180703e-02       7.180703e-02 
       3.000000e-01      -7.180703e-02      -7.180703e-02 
       3.000000e-01       7.180703e-02      -7.180703e-02 
       3.000000e-01       7.180703e-02       7.180704e-02 
       3.000000e-01      -7.180703e-02       7.180704e-02 
       3.000000e-01      -7.180703e-02      -7.180703e-02 
       3.000000e-01       7.180703e-02      -7.180703e-02 
       3.000000e-01       7.180703e-02       7.180704e-02 
       3.000000e-01      -7.180703e-02       7.180704e-02 
       4.000000e-01      -7.180703e-02      -7.180703e-02 
       4.000000e-01       7.180703e-02      -7.180703e-02 
       4.000000e-01       7.180703e-02       7.180704e-02 
       4.000000e-01      -7.180703e-02       7.180704e-02 
       4.000000e-01      -7.180703e-02      -7.180703e-02 
       4.000000e-01       7.180703e-02      -7.180703e-02 
       4.000000e-01       7.180703e-02       7.180704e-02 
       4.000000e-01      -7.180703e-02       7.180704e-02 
       5.000000e-01      -7.180703e-02      -7.180702e-02 
       5.000000e-01       7.180703e-02      -7.180702e-02 
       5.000000e-01       7.180703e-02       7.180704e-02 
       5.000000e-01      -7.180703e-02       7.180704e-02 
       5.000000e-01      -7.180703e-02      -7.180702e-02 
       5.000000e-01       7.180703e-02      -7.180702e-02 
       5.000000e-01       7.180703e-02       7.180704e-02 
       5.000000e-01      -7.180703e-02       7.180704e-02 
       6.000000e-01      -7.180703e-02      -7.180702e-02 
       6.000000e-01       7.180703e-02      -7.180702e-02 
       6.000000e-01       7.180703e-02       7.180705e-02 
       6.000000e-01      -7.180703e-02       7.180705e-02 
       6.000000e-01      -7.180703e-02      -7.180702e-02 
       6.000000e-01       7.180703e-02      -7.180702e-02 
       6.000000e-01       7.180703e-02       7.180705e-02 
       6.000000e-01      -7.180703e-02       7.180705e-02 
       7.000000e-01      -7.180703e-02      -7.180702e-02 
       7.000000e-01       7.180703e-02      -7.180702e-02 
       7.000000e-01       7.180703e-02       7.180705e-02 
       7.000000e-01      -7.180703e-02       7.180705e-02 
       7.000000e-01      -7.180703e-02      -7.180702e-02 
       7.000000e-01       7.180703e-02      -7.180702e-02 
       7.000000e-01       7.180703e-02       7.180705e-02 
       7.000000e-01      -7.180703e-02       7.180705e-02 
       8.000000e-01      -7.180703e-02      -7.180701e-02 
       8.000000e-01       7.180703e-02      -7.180701e-02 
       8.000000e-01       7.180703e-02       7.180705e-02 
       8.000000e-01      -7.180703e-02       7.180705e-02 
       8.000000e-01      -7.180703e-02      -7.180701e-02 
       8.000000e-01       7.180703e-02      -7.180701e-02 
       8.000000e-01       7.180703e-02       7.180705e-02 
       8.000000e-01      -7.180703e-02       7.180705e-02 
       9.000000e-01      -7.180703e-02      -7.180701e-02 
       9.000000e-01       7.180703e-02      -7.180701e-02 
       9.000000e-01       7.180703e-02       7.180706e-02 
       9.000000e-01      -7.180703e-02       7.180706e-02 
       9.000000e-01      -7.180703e-02      -7.180701e-02 
       9.000000e-01       7.180703e-02      -7.180701e-02 
       9.000000e-01       7.180703e-02       7.180706e-02 
       9.000000e-01      -7.180703e-02       7.180706e-02 
       1.000000e+00      -7.180703e-02      -7.180700e-02 
       1.000000e+00       7.180703e-02      -7.180700e-02 
       1.000000e+00       7.180703e-02       7.180707e-02 
       1.000000e+00      -7.180703e-02       7.180707e-02 
       1.000000e+00      -7.180703e-02      -7.180700e-02 
       1.000000e+00       7.180703e-02      -7.180700e-02 
       1.000000e+00       7.180703e-02       7.180707e-02 
       1.000000e+00      -7.180703e-02       7.180707e-02 
       1.100000e+00      -7.180703e-02      -7.180699e-02 
       1.100000e+00       7.180703e-02      -7.180699e-02 
       1.100000e+00       7.180703e-02       7.180707e-02 
       1.100000e+00      -7.180703e-02       7.180707e-02 
       1.100000e+00      -7.180703e-02      -7.180699e-02 
       1.100000e+00       7.180703e-02      -7.180699e-02 
       1.100000e+00       7.180703e-02       7.180707e-02 
       1.100000e+00      -7.180703e-02       7.180707e-02 
       1.200000e+00      -7.180703e-02      -7.180699e-02 
       1.200000e+00       7.180703e-02      -7.180699e-02 
       1.200000e+00       7.180703e-02       7.180708e-02 
       1.200000e+00      -7.180703e-02       7.180708e-02 
       1.200000e+00      -7.180703e-02      -7.180699e-02 
       1.200000e+00       7.180703e-02      -7.180699e-02 
       1.200000e+00       7.180703e-02       7.180708e-02 
       1.200000e+00      -7.180703e-02       7.180708e-02 
       1.300000e+00      -7.180703e-02      -7.180698e-02 
       1.300000e+00       7.180703e-02      -7.180698e-02 
       1.300000e+00       7.180703e-02       7.180709e-02 
       1.300000e+00      -7.180703e-02       7.180709e-02 
       1.300000e+00      -7.180703e-02      -7.180698e-02 
       1.300000e+00       7.180703e-02      -7.180698e-02 
       1.300000e+00       7.180703e-02       7.180709e-02 
       1.300000e+00      -7.180703e-02       7.180709e-02 
       1.400000e+00      -7.180703e-02      -7.180697e-02 
       1.400000e+00       7.180703e-02      -7.180697e-02 
       1.400000e+00       7.180703e-02       7.180710e-02 
       1.400000e+00      -7.180703e-02       7.180710e-02 
       1.400000e+00      -7.180703e-02      -7.180697e-02 
       1.400000e+00       7.180703e-02      -7.180697e-02 
       1.400000e+00       7.180703e-02       7.180710e-02 
       1.400000e+00      -7.180703e-02       7.180710e-02 
       1.500000e+00      -7.180703e-02      -7.180696e-02 
       1.500000e+00       7.180703e-02      -7.180696e-02 
       1.500000e+00       7.180703e-02       7.180710e-02 
       1.500000e+00      -7.180703e-02       7.180710e-02 
       1.500000e+00      -7.180703e-02      -7.180696e-02 
       1.500000e+00       7.180703e-02      -7.180696e-02 
       1.500000e+00       7.180703e-02       7.180710e-02 
       1.500000e+00      -7.180703e-02       7.180710e-02 
       1.600000e+00      -7.180703e-02      -7.180695e-02 
       1.600000e+00       7.180703e-02      -7.180695e-02 
       1.600000e+00       7.180703e-02       7.180711e-02 
       1.600000e+00      -7.180703e-02       7.180711e-02 
       1.600000e+00      -7.180703e-02      -7.180695e-02 
       1.600000e+00       7.180703e-02      -7.180695e-02 
       1.600000e+00       7.180703e-02       7.180711e-02 
       1.600000e+00      -7.180703e-02       7.180711e-02 
       1.700000e+00      -7.180703e-02      -7.180694e-02 
       1.700000e+00       7.180703e-02      -7.180694e-02 
       1.700000e+00       7.180703e-02       7.180712e-02 
       1.700000e+00      -7.180703e-02       7.180712e-02 
       1.700000e+00      -7.180703e-02      -7.180694e-02 
       1.700000e+00       7.180703e-02      -7.180694e-02 
       1.700000e+00       7.180703e-02       7.180712e-02 
       1.700000e+00      -7.180703e-02       7.180712e-02 
       1.800000e+00      -7.180703e-02      -7.180693e-02 
       1.800000e+00       7.180703e-02      -7.180693e-02 
       1.800000e+00       7.180703e-02       7.180713e-02 
       1.800000e+00      -7.180703e-02       7.180713e-02 
       1.800000e+00      -7.180703e-02      -7.180693e-02 
       1.800000e+00       7.180703e-02      -7.180693e-02 
       1.800000e+00       7.180703e-02       7.180713e-02 
       1.800000e+00      -7.180703e-02       7.180713e-02 
       1.900000e+00      -7.180703e-02      -7.180692e-02 
       1.900000e+00       7.180703e-02      -7.180692e-02 
       1.900000e+00       7.180703e-02       7.180715e-02 
       1.900000e+00      -7.180703e-02       7.180715e-02 
       1.900000e+00      -7.180703e-02      -7.180692e-02 
       1.900000e+00       7.180703e-02      -7.180692e-02 
       1.900000e+00       7.180703e-02       7.180715e-02 
       1.900000e+00      -7.180703e-02       7.180715e-02 
       2.000000e+00      -7.180703e-02      -7.180691e-02 
       2.000000e+00       7.180703e-02      -7.180691e-02 
       2.000000e+00       7.180703e-02       7.180716e-02 
       2.000000e+00      -7.180703e-02       7.180716e-02 
       2.000000e+00      -7.180703e-02      -7.180691e-02 
       2.000000e+00       7.180703e-02      -7.180691e-02 
       2.000000e+00       7.180703e-02       7.180716e-02 
       2.000000e+00      -7.180703e-02       7.180716e-02 
       2.100000e+00      -7.180703e-02      -7.180690e-02 
[...]
POINT_DATA       800 
VECTORS Displacements float
      -8.39627673e-27      -1.38777878e-17      -1.38777878e-17 
       3.60112083e-25       1.38777878e-17      -1.38777878e-17 
       8.39627673e-27       1.38777878e-17       1.38777878e-17 
      -3.60112083e-25      -1.38777878e-17       1.38777878e-17 
       5.06335210e-10       3.04577197e-12       3.50656809e-10 
       4.97614769e-10       3.04581360e-12       3.50656809e-10 
      -5.06355111e-10       3.04581360e-12       3.50656837e-10 
      -4.97634670e-10       3.04577197e-12       3.50656823e-10 
       5.06335210e-10       3.04577197e-12       3.50656809e-10 
       4.97614769e-10       3.04581360e-12       3.50656809e-10 
      -5.06355111e-10       3.04581360e-12       3.50656837e-10 
      -4.97634670e-10       3.04577197e-12       3.50656823e-10 
       1.00294120e-09       1.21053584e-11       1.39367233e-09 
       9.85667908e-10       1.21053861e-11       1.39367232e-09 
      -1.00298103e-09       1.21053861e-11       1.39367232e-09 
      -9.85707738e-10       1.21053584e-11       1.39367233e-09 
       1.00294120e-09       1.21053584e-11       1.39367233e-09 
       9.85667908e-10       1.21053861e-11       1.39367232e-09 
      -1.00298103e-09       1.21053861e-11       1.39367232e-09 
      -9.85707738e-10       1.21053584e-11       1.39367233e-09 
       1.48981799e-09       2.70620609e-11       3.11561411e-09 
       1.46415929e-09       2.70620887e-11       3.11561411e-09 
      -1.48987783e-09       2.70620887e-11       3.11561410e-09 
      -1.46421913e-09       2.70620609e-11       3.11561410e-09 
       1.48981799e-09       2.70620609e-11       3.11561411e-09 
       1.46415929e-09       2.70620887e-11       3.11561411e-09 
      -1.48987783e-09       2.70620887e-11       3.11561410e-09 
      -1.46421913e-09       2.70620609e-11       3.11561410e-09 
       1.96696553e-09       4.77992229e-11       5.50304977e-09 
       1.93308913e-09       4.77992645e-11       5.50304975e-09 
      -1.96704542e-09       4.77992645e-11       5.50304971e-09 
      -1.93316901e-09       4.77992229e-11       5.50304972e-09 
       1.96696553e-09       4.77992229e-11       5.50304977e-09 
       1.93308913e-09       4.77992645e-11       5.50304975e-09 
      -1.96704542e-09       4.77992645e-11       5.50304971e-09 
      -1.93316901e-09       4.77992229e-11       5.50304972e-09 
       2.43438381e-09       7.42001599e-11       8.54254684e-09 
       2.39245734e-09       7.42001877e-11       8.54254682e-09 
      -2.43448384e-09       7.42001877e-11       8.54254675e-09 
      -2.39255721e-09       7.42001599e-11       8.54254677e-09 
       2.43438381e-09       7.42001599e-11       8.54254684e-09 
       2.39245734e-09       7.42001877e-11       8.54254682e-09 
      -2.43448384e-09       7.42001877e-11       8.54254675e-09 
      -2.39255721e-09       7.42001599e-11       8.54254677e-09 
       2.89207280e-09       1.06148187e-10       1.22206729e-08 
       2.84226365e-09       1.06148229e-10       1.22206729e-08 
      -2.89219293e-09       1.06148229e-10       1.22206728e-08 
      -2.84238377e-09       1.06148187e-10       1.22206728e-08 
       2.89207280e-09       1.06148187e-10       1.22206729e-08 
       2.84226365e-09       1.06148229e-10       1.22206729e-08 
      -2.89219293e-09       1.06148229e-10       1.22206728e-08 
      -2.84238377e-09       1.06148187e-10       1.22206728e-08 
       3.34003269e-09       1.43526663e-10       1.65239956e-08 
       3.28250849e-09       1.43526691e-10       1.65239956e-08 
      -3.34017303e-09       1.43526691e-10       1.65239955e-08 
      -3.28264882e-09       1.43526663e-10       1.65239955e-08 
       3.34003269e-09       1.43526663e-10       1.65239956e-08 
       3.28250849e-09       1.43526691e-10       1.65239956e-08 
      -3.34017303e-09       1.43526691e-10       1.65239955e-08 
      -3.28264882e-09       1.43526663e-10       1.65239955e-08 
       3.77826348e-09       1.86218888e-10       2.14390825e-08 
       3.71319175e-09       1.86218915e-10       2.14390825e-08 
      -3.77842391e-09       1.86218915e-10       2.14390823e-08 
      -3.71335218e-09       1.86218888e-10       2.14390823e-08 
       3.77826348e-09       1.86218888e-10       2.14390825e-08 
       3.71319175e-09       1.86218915e-10       2.14390825e-08 
      -3.77842391e-09       1.86218915e-10       2.14390823e-08 
      -3.71335218e-09       1.86218888e-10       2.14390823e-08 
       4.20676483e-09       2.34108177e-10       2.69525012e-08 
       4.13431311e-09       2.34108219e-10       2.69525011e-08 
      -4.20694557e-09       2.34108219e-10       2.69525009e-08 
      -4.13449386e-09       2.34108177e-10       2.69525009e-08 
       4.20676483e-09       2.34108177e-10       2.69525012e-08 
       4.13431311e-09       2.34108219e-10       2.69525011e-08 
      -4.20694557e-09       2.34108219e-10       2.69525009e-08 
      -4.13449386e-09       2.34108177e-10       2.69525009e-08 
       4.62553706e-09       2.87077903e-10       3.30508192e-08 
       4.54587301e-09       2.87077931e-10       3.30508191e-08 
      -4.62573801e-09       2.87077931e-10       3.30508188e-08 
      -4.54607385e-09       2.87077903e-10       3.30508189e-08 
       4.62553706e-09       2.87077889e-10       3.30508192e-08 
       4.54587301e-09       2.87077917e-10       3.30508191e-08 
      -4.62573801e-09       2.87077945e-10       3.30508188e-08 
      -4.54607385e-09       2.87077917e-10       3.30508189e-08 
       5.03509567e-09       3.45013379e-10       3.97208397e-08 
       4.94837771e-09       3.45013421e-10       3.97208397e-08 
      -5.03530995e-09       3.45013448e-10       3.97208394e-08 
      -4.94859220e-09       3.45013407e-10       3.97208394e-08 
       5.03509567e-09       3.45013379e-10       3.97208397e-08 
       4.94837771e-09       3.45013421e-10       3.97208397e-08 
      -5.03530995e-09       3.45013448e-10       3.97208394e-08 
      -4.94859220e-09       3.45013407e-10       3.97208394e-08 
       5.43594925e-09       4.07808232e-10       4.69503087e-08 
       5.34232769e-09       4.07808259e-10       4.69503087e-08 
      -5.43617662e-09       4.07808287e-10       4.69503083e-08 
      -5.34255507e-09       4.07808259e-10       4.69503083e-08 
       5.43594925e-09       4.07808232e-10       4.69503087e-08 
       5.34232769e-09       4.07808259e-10       4.69503087e-08 
      -5.43617662e-09       4.07808287e-10       4.69503083e-08 
      -5.34255507e-09       4.07808259e-10       4.69503083e-08 
       5.82809756e-09       4.75358017e-10       5.47272077e-08 
       5.72772207e-09       4.75358058e-10       5.47272077e-08 
      -5.82833848e-09       4.75358086e-10       5.47272072e-08 
      -5.72796299e-09       4.75358045e-10       5.47272073e-08 
       5.82809756e-09       4.75358017e-10       5.47272077e-08 
       5.72772207e-09       4.75358058e-10       5.47272077e-08 
      -5.82833848e-09       4.75358086e-10       5.47272072e-08 
      -5.72796299e-09       4.75358045e-10       5.47272073e-08 
       6.21154106e-09       5.47558374e-10       6.30395182e-08 
       6.10456174e-09       5.47558401e-10       6.30395181e-08 
      -6.21179508e-09       5.47558429e-10       6.30395176e-08 
      -6.10481576e-09       5.47558401e-10       6.30395177e-08 
       6.21154106e-09       5.47558374e-10       6.30395182e-08 
       6.10456174e-09       5.47558401e-10       6.30395181e-08 
      -6.21179508e-09       5.47558429e-10       6.30395176e-08 
      -6.10481576e-09       5.47558401e-10       6.30395177e-08 
       6.58627908e-09       6.24304886e-10       7.18752216e-08 
       6.47284581e-09       6.24304927e-10       7.18752216e-08 
      -6.58654686e-09       6.24304955e-10       7.18752210e-08 
      -6.47311360e-09       6.24304913e-10       7.18752211e-08 
       6.58627908e-09       6.24304886e-10       7.18752216e-08 
       6.47284581e-09       6.24304927e-10       7.18752216e-08 
      -6.58654686e-09       6.24304955e-10       7.18752210e-08 
      -6.47311360e-09       6.24304913e-10       7.18752211e-08 
       6.95231162e-09       7.05493192e-10       8.12222996e-08 
       6.83257451e-09       7.05493219e-10       8.12222996e-08 
      -6.95259361e-09       7.05493247e-10       8.12222990e-08 
      -6.83285650e-09       7.05493219e-10       8.12222990e-08 
       6.95231162e-09       7.05493192e-10       8.12222996e-08 
       6.83257451e-09       7.05493219e-10       8.12222996e-08 
      -6.95259361e-09       7.05493247e-10       8.12222990e-08 
      -6.83285650e-09       7.05493219e-10       8.12222990e-08 
       7.30963978e-09       7.91018862e-10       9.10687337e-08 
       7.18374848e-09       7.91018903e-10       9.10687337e-08 
      -7.30993532e-09       7.91018917e-10       9.10687329e-08 
      -7.18404380e-09       7.91018889e-10       9.10687330e-08 
       7.30963978e-09       7.91018862e-10       9.10687337e-08 
       7.18374848e-09       7.91018903e-10       9.10687337e-08 
      -7.30993532e-09       7.91018917e-10       9.10687329e-08 
      -7.18404380e-09       7.91018889e-10       9.10687330e-08 
       7.65826269e-09       8.80777534e-10       1.01402505e-07 
       7.52636686e-09       8.80777562e-10       1.01402505e-07 
      -7.65857178e-09       8.80777590e-10       1.01402504e-07 
      -7.52667617e-09       8.80777562e-10       1.01402505e-07 
       7.65826269e-09       8.80777534e-10       1.01402505e-07 
       7.52636686e-09       8.80777562e-10       1.01402505e-07 
      -7.65857178e-09       8.80777590e-10       1.01402504e-07 
      -7.52667617e-09       8.80777562e-10       1.01402505e-07 
       7.99818034e-09       9.74664807e-10       1.12211596e-07 
       7.86043053e-09       9.74664849e-10       1.12211596e-07 
      -7.99850342e-09       9.74664863e-10       1.12211595e-07 
      -7.86075338e-09       9.74664835e-10       1.12211595e-07 
       7.99818034e-09       9.74664807e-10       1.12211596e-07 
       7.86043053e-09       9.74664849e-10       1.12211596e-07 
      -7.99850342e-09       9.74664863e-10       1.12211595e-07 
      -7.86075338e-09       9.74664835e-10       1.12211595e-07 
       8.32939273e-09       1.07257629e-09       1.23483987e-07 
       8.18593859e-09       1.07257632e-09       1.23483987e-07 
      -8.32973002e-09       1.07257635e-09       1.23483986e-07 
      -8.18627566e-09       1.07257632e-09       1.23483986e-07 
       8.32939273e-09       1.07257629e-09       1.23483987e-07 
       8.18593815e-09       1.07257632e-09       1.23483987e-07 
      -8.32973024e-09       1.07257635e-09       1.23483986e-07 
      -8.18627588e-09       1.07257632e-09       1.23483986e-07 
       8.65241434e-09       1.17440964e-09       1.35207896e-07 
       8.50339710e-09       1.17440967e-09       1.35207896e-07 
      -8.65276117e-09       1.17440969e-09       1.35207895e-07 
      -8.50374393e-09       1.17440967e-09       1.35207895e-07 
       8.65241434e-09       1.17440964e-09       1.35207896e-07 
       8.50339710e-09       1.17440967e-09       1.35207896e-07 
      -8.65276117e-09       1.17440969e-09       1.35207895e-07 
      -8.50374393e-09       1.17440967e-09       1.35207895e-07 
       8.96775543e-09       1.28007067e-09       1.47372483e-07 
       8.81330697e-09       1.28007070e-09       1.47372483e-07 
      -8.96811159e-09       1.28007074e-09       1.47372482e-07 
      -8.81366313e-09       1.28007070e-09       1.47372482e-07 
       8.96775543e-09       1.28007067e-09       1.47372483e-07 
       8.81330697e-09       1.28007070e-09       1.47372483e-07 
      -8.96811159e-09       1.28007074e-09       1.47372482e-07 
      -8.81366313e-09       1.28007070e-09       1.47372482e-07 
       9.27541599e-09       1.38946732e-09       1.59967143e-07 
       9.11566866e-09       1.38946736e-09       1.59967143e-07 
      -9.27578059e-09       1.38946739e-09       1.59967142e-07 
      -9.11603326e-09       1.38946735e-09       1.59967142e-07 
       9.27541599e-09       1.38946732e-09       1.59967143e-07 
       9.11566866e-09       1.38946736e-09       1.59967143e-07 
      -9.27578059e-09       1.38946739e-09       1.59967142e-07 
      -9.11603326e-09       1.38946735e-09       1.59967142e-07 
       9.57539470e-09       1.50250745e-09       1.72981271e-07 
       9.41048084e-09       1.50250749e-09       1.72981271e-07 
      -9.57576907e-09       1.50250752e-09       1.72981270e-07 
      -9.41085565e-09       1.50250748e-09       1.72981270e-07 
       9.57539470e-09       1.50250745e-09       1.72981271e-07 
       9.41048084e-09       1.50250749e-09       1.72981271e-07 
      -9.57576907e-09       1.50250752e-09       1.72981270e-07 
      -9.41085565e-09       1.50250748e-09       1.72981270e-07 
       9.86769244e-09       1.61909897e-09       1.86404263e-07 
       9.69774483e-09       1.61909899e-09       1.86404263e-07 
      -9.86807658e-09       1.61909902e-09       1.86404262e-07 
      -9.69812897e-09       1.61909899e-09       1.86404262e-07 
       9.86769244e-09       1.61909897e-09       1.86404263e-07 
       9.69774483e-09       1.61909899e-09       1.86404263e-07 
      -9.86807658e-09       1.61909902e-09       1.86404262e-07 
      -9.69812897e-09       1.61909899e-09       1.86404262e-07 
       1.01523092e-08       1.73914973e-09       2.00225515e-07 
       9.97745975e-09       1.73914975e-09       2.00225515e-07 
      -1.01527036e-08       1.73914978e-09       2.00225513e-07 
      -9.97785365e-09       1.73914975e-09       2.00225513e-07 
       1.01523092e-08       1.73914973e-09       2.00225515e-07 
       9.97745975e-09       1.73914975e-09       2.00225515e-07 
      -1.01527036e-08       1.73914978e-09       2.00225513e-07 
      -9.97785365e-09       1.73914975e-09       2.00225513e-07 
       1.04292450e-08       1.86256764e-09       2.14434421e-07 
       1.02496260e-08       1.86256767e-09       2.14434421e-07 
      -1.04296491e-08       1.86256770e-09       2.14434420e-07 
      -1.02500302e-08       1.86256767e-09       2.14434420e-07 
       1.04292450e-08       1.86256764e-09       2.14434421e-07 
       1.02496260e-08       1.86256767e-09       2.14434421e-07 
      -1.04296491e-08       1.86256770e-09       2.14434420e-07 
      -1.02500302e-08       1.86256767e-09       2.14434420e-07 
       1.06985008e-08       1.98926060e-09       2.29020378e-07 
       1.05142437e-08       1.98926063e-09       2.29020378e-07 
      -1.06989138e-08       1.98926066e-09       2.29020377e-07 
      -1.05146571e-08       1.98926063e-09       2.29020377e-07 
       1.06985008e-08       1.98926060e-09       2.29020378e-07 
       1.05142437e-08       1.98926063e-09       2.29020378e-07 
      -1.06989138e-08       1.98926066e-09       2.29020377e-07 
      -1.05146571e-08       1.98926063e-09       2.29020377e-07 
       1.09600742e-08       2.11913649e-09       2.43972781e-07 
       1.07713127e-08       2.11913653e-09       2.43972781e-07 
      -1.09604978e-08       2.11913655e-09       2.43972779e-07 
      -1.07717364e-08       2.11913652e-09       2.43972779e-07 
       1.09600742e-08       2.11913649e-09       2.43972781e-07 
       1.07713127e-08       2.11913653e-09       2.43972781e-07 
      -1.09604978e-08       2.11913655e-09       2.43972779e-07 
      -1.07717364e-08       2.11913652e-09       2.43972779e-07 
       1.12139671e-08       2.25210320e-09       2.59281025e-07 
       1.10208331e-08       2.25210324e-09       2.59281025e-07 
      -1.12144010e-08       2.25210327e-09       2.59281023e-07 
      -1.10212666e-08       2.25210323e-09       2.59281023e-07 
       1.12139675e-08       2.25210320e-09       2.59281025e-07 
       1.10208331e-08       2.25210323e-09       2.59281025e-07 
      -1.12144010e-08       2.25210325e-09       2.59281023e-07 
      -1.10212666e-08       2.25210323e-09       2.59281023e-07 
       1.14606928e-08       2.38807067e-09       2.74934741e-07 
       1.12633094e-08       2.38807070e-09       2.74934741e-07 
      -1.14611334e-08       2.38807074e-09       2.74934739e-07 
      -1.12637499e-08       2.38807070e-09       2.74934739e-07 
       1.14606928e-08       2.38807067e-09       2.74934741e-07 
       1.12633094e-08       2.38807070e-09       2.74934741e-07 
      -1.14611334e-08       2.38807074e-09       2.74934739e-07 
      -1.12637499e-08       2.38807070e-09       2.74934739e-07 
       1.17007617e-08       2.52695702e-09       2.90924503e-07 
       1.14992438e-08       2.52695706e-09       2.90924503e-07 
      -1.17012093e-08       2.52695709e-09       2.90924502e-07 
      -1.14996910e-08       2.52695705e-09       2.90924502e-07 
       1.17007617e-08       2.52695702e-09       2.90924503e-07 
       1.14992438e-08       2.52695706e-09       2.90924503e-07 
      -1.17012093e-08       2.52695709e-09       2.90924502e-07 
      -1.14996910e-08       2.52695705e-09       2.90924502e-07 
       1.19341741e-08       2.66868243e-09       3.07241121e-07 
       1.17286358e-08       2.66868246e-09       3.07241121e-07 
      -1.19346280e-08       2.66868248e-09       3.07241119e-07 
      -1.17290897e-08       2.66868246e-09       3.07241119e-07 
       1.19341741e-08       2.66868243e-09       3.07241121e-07 
       1.17286358e-08       2.66868246e-09       3.07241121e-07 
      -1.19346280e-08       2.66868248e-09       3.07241119e-07 
      -1.17290897e-08       2.66868246e-09       3.07241119e-07 
       1.21609292e-08       2.81316705e-09       3.23875404e-07 
       1.19514856e-08       2.81316707e-09       3.23875404e-07 
      -1.21613901e-08       2.81316710e-09       3.23875402e-07 
      -1.19519470e-08       2.81316707e-09       3.23875402e-07 
       1.21609292e-08       2.81316705e-09       3.23875404e-07 
       1.19514856e-08       2.81316707e-09       3.23875404e-07 
      -1.21613901e-08       2.81316710e-09       3.23875402e-07 
      -1.19519470e-08       2.81316707e-09       3.23875402e-07 
       1.23810269e-08       2.96033106e-09       3.40818161e-07 
       1.21677930e-08       2.96033111e-09       3.40818161e-07 
      -1.23814958e-08       2.96033112e-09       3.40818159e-07 
      -1.21682620e-08       2.96033109e-09       3.40818159e-07 
       1.23810269e-08       2.96033106e-09       3.40818161e-07 
       1.21677930e-08       2.96033111e-09       3.40818161e-07 
      -1.23814958e-08       2.96033112e-09       3.40818159e-07 
      -1.21682620e-08       2.96033109e-09       3.40818159e-07 
       1.25944681e-08       3.11009465e-09       3.58060202e-07 
       1.23775585e-08       3.11009470e-09       3.58060202e-07 
      -1.25949446e-08       3.11009472e-09       3.58060200e-07 
      -1.23780346e-08       3.11009468e-09       3.58060200e-07 
       1.25944681e-08       3.11009465e-09       3.58060202e-07 
       1.23775585e-08       3.11009470e-09       3.58060202e-07 
      -1.25949446e-08       3.11009472e-09       3.58060200e-07 
      -1.23780346e-08       3.11009468e-09       3.58060200e-07 
       1.28012525e-08       3.26237798e-09       3.75592336e-07 
       1.25807813e-08       3.26237801e-09       3.75592336e-07 
      -1.28017366e-08       3.26237803e-09       3.75592334e-07 
      -1.25812654e-08       3.26237801e-09       3.75592334e-07 
       1.28012525e-08       3.26237798e-09       3.75592336e-07 
       1.25807813e-08       3.26237801e-09       3.75592336e-07 
      -1.28017366e-08       3.26237803e-09       3.75592334e-07 
      -1.25812654e-08       3.26237801e-09       3.75592334e-07 
       1.30013809e-08       3.41710120e-09       3.93405373e-07 
       1.27774626e-08       3.41710123e-09       3.93405372e-07 
      -1.30018711e-08       3.41710125e-09       3.93405370e-07 
      -1.27779529e-08       3.41710123e-09       3.93405370e-07 
       1.30013809e-08       3.41710120e-09       3.93405373e-07 
       1.27774626e-08       3.41710123e-09       3.93405372e-07 