# vtk DataFile Version 2.0
./output/onsasExample_nonLinearCantileverBlade_staitc3D_no_pitch numElements=10/onsasExample_nonLinearCantileverBlade_staitc3D_no_pitch numElements=10_0004.vtk
ASCII
DATASET UNSTRUCTURED_GRID

POINTS 800 float
      -1.167316e-25      -7.180703e-02      -7.180703e-02 
      -1.167316e-25       7.180703e-02      -7.180703e-02 
       1.167316e-25       7.180703e-02       7.180703e-02 
       1.167316e-25      -7.180703e-02       7.180703e-02 
       1.000000e-01      -7.180703e-02      -7.180703e-02 
       1.000000e-01       7.180703e-02      -7.180703e-02 
       1.000000e-01       7.180703e-02       7.180703e-02 
       1.000000e-01      -7.180703e-02       7.180703e-02 
       1.000000e-01      -7.180703e-02      -7.180703e-02 
       1.000000e-01       7.180703e-02      -7.180703e-02 
       1.000000e-01       7.180703e-02       7.180703e-02 
       1.000000e-01      -7.180703e-02       7.180703e-02 
       2.000000e-01      -7.180703e-02      -7.180703e-02 
       2.000000e-01       7.180703e-02      -7.180703e-02 
       2.000000e-01       7.180703e-02       7.180703e-02 
       2.000000e-01      -7.180703e-02       7.180703e-02 
       2.000000e-01      -7.180703e-02      -7.180703e-02 
       2.000000e-01       7.180703e-02      -7.180703e-02 
       2.000000e-01       7.180703e-02       7.180703e-02 
       2.000000e-01      -7.180703e-02       7.180703e-02 
       3.000000e-01      -7.180703e-02      -7.180703e-02 
       3.000000e-01       7.180703e-02      -7.180703e-02 
       3.000000e-01       7.180703e-02       7.180703e-02 
       3.000000e-01      -7.180703e-02       7.180703e-02 
       3.000000e-01      -7.180703e-02      -7.180703e-02 
       3.000000e-01       7.180703e-02      -7.180703e-02 
       3.000000e-01       7.180703e-02       7.180703e-02 
       3.000000e-01      -7.180703e-02       7.180703e-02 
       4.000000e-01      -7.180703e-02      -7.180703e-02 
       4.000000e-01       7.180703e-02      -7.180703e-02 
       4.000000e-01       7.180703e-02       7.180703e-02 
       4.000000e-01      -7.180703e-02       7.180703e-02 
       4.000000e-01      -7.180703e-02      -7.180703e-02 
       4.000000e-01       7.180703e-02      -7.180703e-02 
       4.000000e-01       7.180703e-02       7.180703e-02 
       4.000000e-01      -7.180703e-02       7.180703e-02 
       5.000000e-01      -7.180703e-02      -7.180703e-02 
       5.000000e-01       7.180703e-02      -7.180703e-02 
       5.000000e-01       7.180703e-02       7.180704e-02 
       5.000000e-01      -7.180703e-02       7.180704e-02 
       5.000000e-01      -7.180703e-02      -7.180703e-02 
       5.000000e-01       7.180703e-02      -7.180703e-02 
       5.000000e-01       7.180703e-02       7.180704e-02 
       5.000000e-01      -7.180703e-02       7.180704e-02 
       6.000000e-01      -7.180703e-02      -7.180703e-02 
       6.000000e-01       7.180703e-02      -7.180703e-02 
       6.000000e-01       7.180703e-02       7.180704e-02 
       6.000000e-01      -7.180703e-02       7.180704e-02 
       6.000000e-01      -7.180703e-02      -7.180703e-02 
       6.000000e-01       7.180703e-02      -7.180703e-02 
       6.000000e-01       7.180703e-02       7.180704e-02 
       6.000000e-01      -7.180703e-02       7.180704e-02 
       7.000000e-01      -7.180703e-02      -7.180703e-02 
       7.000000e-01       7.180703e-02      -7.180703e-02 
       7.000000e-01       7.180703e-02       7.180704e-02 
       7.000000e-01      -7.180703e-02       7.180704e-02 
       7.000000e-01      -7.180703e-02      -7.180703e-02 
       7.000000e-01       7.180703e-02      -7.180703e-02 
       7.000000e-01       7.180703e-02       7.180704e-02 
       7.000000e-01      -7.180703e-02       7.180704e-02 
       8.000000e-01      -7.180703e-02      -7.180703e-02 
       8.000000e-01       7.180703e-02      -7.180703e-02 
       8.000000e-01       7.180703e-02       7.180704e-02 
       8.000000e-01      -7.180703e-02       7.180704e-02 
       8.000000e-01      -7.180703e-02      -7.180703e-02 
       8.000000e-01       7.180703e-02      -7.180703e-02 
       8.000000e-01       7.180703e-02       7.180704e-02 
       8.000000e-01      -7.180703e-02       7.180704e-02 
       9.000000e-01      -7.180703e-02      -7.180702e-02 
       9.000000e-01       7.180703e-02      -7.180702e-02 
       9.000000e-01       7.180703e-02       7.180704e-02 
       9.000000e-01      -7.180703e-02       7.180704e-02 
       9.000000e-01      -7.180703e-02      -7.180702e-02 
       9.000000e-01       7.180703e-02      -7.180702e-02 
       9.000000e-01       7.180703e-02       7.180704e-02 
       9.000000e-01      -7.180703e-02       7.180704e-02 
       1.000000e+00      -7.180703e-02      -7.180702e-02 
       1.000000e+00       7.180703e-02      -7.180702e-02 
       1.000000e+00       7.180703e-02       7.180704e-02 
       1.000000e+00      -7.180703e-02       7.180704e-02 
       1.000000e+00      -7.180703e-02      -7.180702e-02 
       1.000000e+00       7.180703e-02      -7.180702e-02 
       1.000000e+00       7.180703e-02       7.180704e-02 
       1.000000e+00      -7.180703e-02       7.180704e-02 
       1.100000e+00      -7.180703e-02      -7.180702e-02 
       1.100000e+00       7.180703e-02      -7.180702e-02 
       1.100000e+00       7.180703e-02       7.180705e-02 
       1.100000e+00      -7.180703e-02       7.180705e-02 
       1.100000e+00      -7.180703e-02      -7.180702e-02 
       1.100000e+00       7.180703e-02      -7.180702e-02 
       1.100000e+00       7.180703e-02       7.180705e-02 
       1.100000e+00      -7.180703e-02       7.180705e-02 
       1.200000e+00      -7.180703e-02      -7.180702e-02 
       1.200000e+00       7.180703e-02      -7.180702e-02 
       1.200000e+00       7.180703e-02       7.180705e-02 
       1.200000e+00      -7.180703e-02       7.180705e-02 
       1.200000e+00      -7.180703e-02      -7.180702e-02 
       1.200000e+00       7.180703e-02      -7.180702e-02 
       1.200000e+00       7.180703e-02       7.180705e-02 
       1.200000e+00      -7.180703e-02       7.180705e-02 
       1.300000e+00      -7.180703e-02      -7.180701e-02 
       1.300000e+00       7.180703e-02      -7.180701e-02 
       1.300000e+00       7.180703e-02       7.180705e-02 
       1.300000e+00      -7.180703e-02       7.180705e-02 
       1.300000e+00      -7.180703e-02      -7.180701e-02 
       1.300000e+00       7.180703e-02      -7.180701e-02 
       1.300000e+00       7.180703e-02       7.180705e-02 
       1.300000e+00      -7.180703e-02       7.180705e-02 
       1.400000e+00      -7.180703e-02      -7.180701e-02 
       1.400000e+00       7.180703e-02      -7.180701e-02 
       1.400000e+00       7.180703e-02       7.180705e-02 
       1.400000e+00      -7.180703e-02       7.180705e-02 
       1.400000e+00      -7.180703e-02      -7.180701e-02 
       1.400000e+00       7.180703e-02      -7.180701e-02 
       1.400000e+00       7.180703e-02       7.180705e-02 
       1.400000e+00      -7.180703e-02       7.180705e-02 
       1.500000e+00      -7.180703e-02      -7.180701e-02 
       1.500000e+00       7.180703e-02      -7.180701e-02 
       1.500000e+00       7.180703e-02       7.180706e-02 
       1.500000e+00      -7.180703e-02       7.180706e-02 
       1.500000e+00      -7.180703e-02      -7.180701e-02 
       1.500000e+00       7.180703e-02      -7.180701e-02 
       1.500000e+00       7.180703e-02       7.180706e-02 
       1.500000e+00      -7.180703e-02       7.180706e-02 
       1.600000e+00      -7.180703e-02      -7.180701e-02 
       1.600000e+00       7.180703e-02      -7.180701e-02 
       1.600000e+00       7.180703e-02       7.180706e-02 
       1.600000e+00      -7.180703e-02       7.180706e-02 
       1.600000e+00      -7.180703e-02      -7.180701e-02 
       1.600000e+00       7.180703e-02      -7.180701e-02 
       1.600000e+00       7.180703e-02       7.180706e-02 
       1.600000e+00      -7.180703e-02       7.180706e-02 
       1.700000e+00      -7.180703e-02      -7.180700e-02 
       1.700000e+00       7.180703e-02      -7.180700e-02 
       1.700000e+00       7.180703e-02       7.180706e-02 
       1.700000e+00      -7.180703e-02       7.180706e-02 
       1.700000e+00      -7.180703e-02      -7.180700e-02 
       1.700000e+00       7.180703e-02      -7.180700e-02 
       1.700000e+00       7.180703e-02       7.180706e-02 
       1.700000e+00      -7.180703e-02       7.180706e-02 
       1.800000e+00      -7.180703e-02      -7.180700e-02 
       1.800000e+00       7.180703e-02      -7.180700e-02 
       1.800000e+00       7.180703e-02       7.180707e-02 
       1.800000e+00      -7.180703e-02       7.180707e-02 
       1.800000e+00      -7.180703e-02      -7.180700e-02 
       1.800000e+00       7.180703e-02      -7.180700e-02 
       1.800000e+00       7.180703e-02       7.180707e-02 
       1.800000e+00      -7.180703e-02       7.180707e-02 
       1.900000e+00      -7.180703e-02      -7.180700e-02 
       1.900000e+00       7.180703e-02      -7.180700e-02 
       1.900000e+00       7.180703e-02       7.180707e-02 
       1.900000e+00      -7.180703e-02       7.180707e-02 
       1.900000e+00      -7.180703e-02      -7.180700e-02 
       1.900000e+00       7.180703e-02      -7.180700e-02 
       1.900000e+00       7.180703e-02       7.180707e-02 
       1.900000e+00      -7.180703e-02       7.180707e-02 
       2.000000e+00      -7.180703e-02      -7.180699e-02 
       2.000000e+00       7.180703e-02      -7.180699e-02 
       2.000000e+00       7.180703e-02       7.180707e-02 
       2.000000e+00      -7.180703e-02       7.180707e-02 
       2.000000e+00      -7.180703e-02      -7.180699e-02 
       2.000000e+00       7.180703e-02      -7.180699e-02 
       2.000000e+00       7.180703e-02       7.180707e-02 
       2.000000e+00      -7.180703e-02       7.180707e-02 
       2.100000e+00      -7.180703e-02      -7.180699e-02 
[...]
POINT_DATA       800 
VECTORS Displacements float
      -1.16731560e-25      -1.38777878e-17       0.00000000e+00 
      -1.16731560e-25       1.38777878e-17       0.00000000e+00 
       1.16731560e-25       1.38777878e-17       0.00000000e+00 
       1.16731560e-25      -1.38777878e-17       0.00000000e+00 
       1.68284317e-10       7.23435201e-13       1.16830726e-10 
       1.66213002e-10       7.23462956e-13       1.16830726e-10 
      -1.68286524e-10       7.23476834e-13       1.16830740e-10 
      -1.66215208e-10       7.23435201e-13       1.16830740e-10 
       1.68284317e-10       7.23435201e-13       1.16830726e-10 
       1.66213002e-10       7.23462956e-13       1.16830726e-10 
      -1.68286524e-10       7.23476834e-13       1.16830740e-10 
      -1.66215208e-10       7.23435201e-13       1.16830740e-10 
       3.33335110e-10       2.87531110e-12       4.64339359e-10 
       3.29232280e-10       2.87533886e-12       4.64339359e-10 
      -3.33339523e-10       2.87533886e-12       4.64339373e-10 
      -3.29236693e-10       2.87531110e-12       4.64339373e-10 
       3.33335110e-10       2.87531110e-12       4.64339359e-10 
       3.29232280e-10       2.87533886e-12       4.64339359e-10 
      -3.33339523e-10       2.87533886e-12       4.64339373e-10 
      -3.29236693e-10       2.87531110e-12       4.64339373e-10 
       4.95152364e-10       6.42789988e-12       1.03805051e-09 
       4.89057850e-10       6.42792763e-12       1.03805051e-09 
      -4.95158969e-10       6.42792763e-12       1.03805051e-09 
      -4.89064456e-10       6.42789988e-12       1.03805051e-09 
       4.95152364e-10       6.42789988e-12       1.03805051e-09 
       4.89057850e-10       6.42792763e-12       1.03805051e-09 
      -4.95158969e-10       6.42792763e-12       1.03805051e-09 
      -4.89064456e-10       6.42789988e-12       1.03805051e-09 
       6.53736121e-10       1.13534876e-11       1.83348881e-09 
       6.45689668e-10       1.13535292e-11       1.83348881e-09 
      -6.53744947e-10       1.13535292e-11       1.83348882e-09 
      -6.45698495e-10       1.13534876e-11       1.83348882e-09 
       6.53736121e-10       1.13534876e-11       1.83348881e-09 
       6.45689668e-10       1.13535292e-11       1.83348881e-09 
      -6.53744947e-10       1.13535292e-11       1.83348882e-09 
      -6.45698495e-10       1.13534876e-11       1.83348882e-09 
       8.09086242e-10       1.76243742e-11       2.84617888e-09 
       7.99127653e-10       1.76244019e-11       2.84617888e-09 
      -8.09097345e-10       1.76244019e-11       2.84617888e-09 
      -7.99138755e-10       1.76243742e-11       2.84617888e-09 
       8.09086242e-10       1.76243742e-11       2.84617888e-09 
       7.99127653e-10       1.76244019e-11       2.84617888e-09 
      -8.09097345e-10       1.76244019e-11       2.84617888e-09 
      -7.99138755e-10       1.76243742e-11       2.84617888e-09 
       9.61202895e-10       2.52128179e-11       4.07164535e-09 
       9.49371914e-10       2.52128457e-11       4.07164535e-09 
      -9.61216218e-10       2.52128457e-11       4.07164535e-09 
      -9.49385237e-10       2.52128179e-11       4.07164535e-09 
       9.61202895e-10       2.52128179e-11       4.07164535e-09 
       9.49371914e-10       2.52128457e-11       4.07164535e-09 
      -9.61216218e-10       2.52128457e-11       4.07164535e-09 
      -9.49385237e-10       2.52128179e-11       4.07164535e-09 
       1.11008602e-09       3.40911327e-11       5.50541289e-09 
       1.09642262e-09       3.40911743e-11       5.50541289e-09 
      -1.11010157e-09       3.40911743e-11       5.50541288e-09 
      -1.09643816e-09       3.40911327e-11       5.50541288e-09 
       1.11008602e-09       3.40911327e-11       5.50541289e-09 
       1.09642262e-09       3.40911743e-11       5.50541289e-09 
      -1.11010157e-09       3.40911743e-11       5.50541288e-09 
      -1.09643816e-09       3.40911327e-11       5.50541288e-09 
       1.25573563e-09       4.42316045e-11       7.14300606e-09 
       1.24027943e-09       4.42316322e-11       7.14300606e-09 
      -1.25575339e-09       4.42316322e-11       7.14300605e-09 
      -1.24029720e-09       4.42316045e-11       7.14300606e-09 
       1.25573563e-09       4.42316045e-11       7.14300606e-09 
       1.24027943e-09       4.42316322e-11       7.14300606e-09 
      -1.25575339e-09       4.42316322e-11       7.14300605e-09 
      -1.24029720e-09       4.42316045e-11       7.14300606e-09 
       1.39815171e-09       5.56065055e-11       8.97994955e-09 
       1.38094258e-09       5.56065333e-11       8.97994955e-09 
      -1.39817169e-09       5.56065333e-11       8.97994953e-09 
      -1.38096257e-09       5.56065055e-11       8.97994953e-09 
       1.39815171e-09       5.56065055e-11       8.97994955e-09 
       1.38094258e-09       5.56065333e-11       8.97994955e-09 
      -1.39817169e-09       5.56065333e-11       8.97994953e-09 
      -1.38096257e-09       5.56065055e-11       8.97994953e-09 
       1.53733426e-09       6.81881218e-11       1.10117679e-08 
       1.51841206e-09       6.81881634e-11       1.10117679e-08 
      -1.53735646e-09       6.81881634e-11       1.10117679e-08 
      -1.51843416e-09       6.81881218e-11       1.10117679e-08 
       1.53733426e-09       6.81881496e-11       1.10117680e-08 
       1.51841206e-09       6.81881496e-11       1.10117680e-08 
      -1.53735646e-09       6.81881496e-11       1.10117679e-08 
      -1.51843427e-09       6.81881496e-11       1.10117679e-08 
       1.67345382e-09       8.19492668e-11       1.32340644e-08 
       1.65285607e-09       8.19492668e-11       1.32340644e-08 
      -1.67347758e-09       8.19492668e-11       1.32340644e-08 
      -1.65288006e-09       8.19492668e-11       1.32340644e-08 
       1.67345382e-09       8.19492668e-11       1.32340644e-08 
       1.65285607e-09       8.19492668e-11       1.32340644e-08 
      -1.67347758e-09       8.19492668e-11       1.32340644e-08 
      -1.65288006e-09       8.19492668e-11       1.32340644e-08 
       1.80668036e-09       9.68646136e-11       1.56427562e-08 
       1.78444282e-09       9.68646136e-11       1.56427562e-08 
      -1.80670523e-09       9.68646136e-11       1.56427561e-08 
      -1.78446791e-09       9.68646136e-11       1.56427561e-08 
       1.80668036e-09       9.68646136e-11       1.56427562e-08 
       1.78444282e-09       9.68646136e-11       1.56427562e-08 
      -1.80670523e-09       9.68646136e-11       1.56427561e-08 
      -1.78446791e-09       9.68646136e-11       1.56427561e-08 
       1.93701344e-09       1.12909362e-10       1.82338389e-08 
       1.91317184e-09       1.12909362e-10       1.82338389e-08 
      -1.93704008e-09       1.12909362e-10       1.82338389e-08 
      -1.91319827e-09       1.12909362e-10       1.82338389e-08 
       1.93701344e-09       1.12909362e-10       1.82338389e-08 
       1.91317184e-09       1.12909362e-10       1.82338389e-08 
      -1.93704008e-09       1.12909362e-10       1.82338389e-08 
      -1.91319827e-09       1.12909362e-10       1.82338389e-08 
       2.06445372e-09       1.30058742e-10       2.10033084e-08 
       2.03904338e-09       1.30058742e-10       2.10033084e-08 
      -2.06448147e-09       1.30058742e-10       2.10033083e-08 
      -2.03907136e-09       1.30058742e-10       2.10033083e-08 
       2.06445372e-09       1.30058742e-10       2.10033084e-08 
       2.03904338e-09       1.30058742e-10       2.10033084e-08 
      -2.06448147e-09       1.30058742e-10       2.10033083e-08 
      -2.03907136e-09       1.30058742e-10       2.10033083e-08 
       2.18900054e-09       1.48287937e-10       2.39471603e-08 
       2.16205720e-09       1.48287937e-10       2.39471603e-08 
      -2.18903007e-09       1.48287937e-10       2.39471602e-08 
      -2.16208695e-09       1.48287937e-10       2.39471602e-08 
       2.18900054e-09       1.48287937e-10       2.39471603e-08 
       2.16205720e-09       1.48287937e-10       2.39471603e-08 
      -2.18903007e-09       1.48287937e-10       2.39471602e-08 
      -2.16208695e-09       1.48287937e-10       2.39471602e-08 
       2.31065433e-09       1.67572192e-10       2.70613903e-08 
       2.28221353e-09       1.67572192e-10       2.70613903e-08 
      -2.31068542e-09       1.67572192e-10       2.70613902e-08 
      -2.28224484e-09       1.67572192e-10       2.70613902e-08 
       2.31065433e-09       1.67572192e-10       2.70613903e-08 
       2.28221353e-09       1.67572192e-10       2.70613903e-08 
      -2.31068542e-09       1.67572192e-10       2.70613902e-08 
      -2.28224484e-09       1.67572192e-10       2.70613902e-08 
       2.42941467e-09       1.87886665e-10       3.03419942e-08 
       2.39951237e-09       1.87886665e-10       3.03419942e-08 
      -2.42944753e-09       1.87886665e-10       3.03419941e-08 
      -2.39954523e-09       1.87886665e-10       3.03419942e-08 
       2.42941467e-09       1.87886665e-10       3.03419942e-08 
       2.39951237e-09       1.87886665e-10       3.03419942e-08 
      -2.42944753e-09       1.87886665e-10       3.03419941e-08 
      -2.39954523e-09       1.87886665e-10       3.03419942e-08 
       2.54528243e-09       2.09206583e-10       3.37849678e-08 
       2.51395371e-09       2.09206583e-10       3.37849678e-08 
      -2.54531640e-09       2.09206583e-10       3.37849677e-08 
      -2.51398791e-09       2.09206583e-10       3.37849677e-08 
       2.54528243e-09       2.09206583e-10       3.37849678e-08 
       2.51395371e-09       2.09206583e-10       3.37849678e-08 
      -2.54531640e-09       2.09206583e-10       3.37849677e-08 
      -2.51398791e-09       2.09206583e-10       3.37849677e-08 
       2.65825650e-09       2.31507133e-10       3.73863066e-08 
       2.62553757e-09       2.31507133e-10       3.73863066e-08 
      -2.65829225e-09       2.31507133e-10       3.73863065e-08 
      -2.62557309e-09       2.31507133e-10       3.73863065e-08 
       2.65825650e-09       2.31507133e-10       3.73863066e-08 
       2.62553757e-09       2.31507133e-10       3.73863066e-08 
      -2.65829225e-09       2.31507133e-10       3.73863065e-08 
      -2.62557309e-09       2.31507133e-10       3.73863065e-08 
       2.76833756e-09       2.54763544e-10       4.11420065e-08 
       2.73426348e-09       2.54763544e-10       4.11420065e-08 
      -2.76837486e-09       2.54763544e-10       4.11420064e-08 
      -2.73430079e-09       2.54763544e-10       4.11420064e-08 
       2.76833756e-09       2.54763530e-10       4.11420065e-08 
       2.73426348e-09       2.54763557e-10       4.11420065e-08 
      -2.76837486e-09       2.54763557e-10       4.11420064e-08 
      -2.73430101e-09       2.54763530e-10       4.11420064e-08 
       2.87569613e-09       2.78951487e-10       4.50481416e-08 
       2.84030044e-09       2.78951515e-10       4.50481416e-08 
      -2.87573432e-09       2.78951515e-10       4.50481415e-08 
      -2.84033908e-09       2.78951487e-10       4.50481415e-08 
       2.87569613e-09       2.78951487e-10       4.50481416e-08 
       2.84030044e-09       2.78951515e-10       4.50481416e-08 
      -2.87573432e-09       2.78951515e-10       4.50481415e-08 
      -2.84033908e-09       2.78951487e-10       4.50481415e-08 
       2.98050162e-09       3.04048606e-10       4.91011003e-08 
       2.94381586e-09       3.04048647e-10       4.91011003e-08 
      -2.98054115e-09       3.04048647e-10       4.91011002e-08 
      -2.94385583e-09       3.04048606e-10       4.91011002e-08 
       2.98050162e-09       3.04048606e-10       4.91011003e-08 
       2.94381586e-09       3.04048647e-10       4.91011003e-08 
      -2.98054115e-09       3.04048647e-10       4.91011002e-08 
      -2.94385583e-09       3.04048606e-10       4.91011002e-08 
       3.08275450e-09       3.30033029e-10       5.32973495e-08 
       3.04481063e-09       3.30033056e-10       5.32973494e-08 
      -3.08279446e-09       3.30033056e-10       5.32973493e-08 
      -3.04485059e-09       3.30033029e-10       5.32973493e-08 
       3.08275450e-09       3.30033029e-10       5.32973495e-08 
       3.04481063e-09       3.30033056e-10       5.32973494e-08 
      -3.08279446e-09       3.30033056e-10       5.32973493e-08 
      -3.04485059e-09       3.30033029e-10       5.32973493e-08 
       3.18245474e-09       3.56882870e-10       5.76333558e-08 
       3.14328341e-09       3.56882898e-10       5.76333558e-08 
      -3.18249560e-09       3.56882898e-10       5.76333556e-08 
      -3.14332427e-09       3.56882870e-10       5.76333556e-08 
       3.18245474e-09       3.56882870e-10       5.76333558e-08 
       3.14328341e-09       3.56882898e-10       5.76333558e-08 
      -3.18249560e-09       3.56882898e-10       5.76333556e-08 
      -3.14332427e-09       3.56882870e-10       5.76333556e-08 
       3.27960148e-09       3.84576260e-10       6.21055861e-08 
       3.23923466e-09       3.84576287e-10       6.21055861e-08 
      -3.27964411e-09       3.84576287e-10       6.21055860e-08 
      -3.23927729e-09       3.84576260e-10       6.21055860e-08 
       3.27960148e-09       3.84576260e-10       6.21055861e-08 
       3.23923466e-09       3.84576287e-10       6.21055861e-08 
      -3.27964411e-09       3.84576287e-10       6.21055860e-08 
      -3.23927729e-09       3.84576260e-10       6.21055860e-08 
       3.37419603e-09       4.13091283e-10       6.67105072e-08 
       3.33266481e-09       4.13091325e-10       6.67105072e-08 
      -3.37423955e-09       4.13091325e-10       6.67105071e-08 
      -3.33270833e-09       4.13091283e-10       6.67105071e-08 
       3.37419603e-09       4.13091283e-10       6.67105072e-08 
       3.33266481e-09       4.13091325e-10       6.67105072e-08 
      -3.37423955e-09       4.13091325e-10       6.67105071e-08 
      -3.33270833e-09       4.13091283e-10       6.67105071e-08 
       3.46623752e-09       4.42406112e-10       7.14445860e-08 
       3.42357342e-09       4.42406153e-10       7.14445860e-08 
      -3.46628237e-09       4.42406153e-10       7.14445858e-08 
      -3.42361828e-09       4.42406112e-10       7.14445858e-08 
       3.46623752e-09       4.42406112e-10       7.14445860e-08 
       3.42357342e-09       4.42406153e-10       7.14445860e-08 
      -3.46628237e-09       4.42406153e-10       7.14445858e-08 
      -3.42361828e-09       4.42406112e-10       7.14445858e-08 
       3.55572682e-09       4.72498846e-10       7.63042892e-08 
       3.51196139e-09       4.72498873e-10       7.63042892e-08 
      -3.55577168e-09       4.72498873e-10       7.63042891e-08 
      -3.51200624e-09       4.72498846e-10       7.63042891e-08 
       3.55572682e-09       4.72498846e-10       7.63042892e-08 
       3.51196139e-09       4.72498873e-10       7.63042892e-08 
      -3.55577168e-09       4.72498873e-10       7.63042891e-08 
      -3.51200624e-09       4.72498846e-10       7.63042891e-08 
       3.64266262e-09       5.03347600e-10       8.12860837e-08 
       3.59782737e-09       5.03347627e-10       8.12860837e-08 
      -3.64270880e-09       5.03347627e-10       8.12860835e-08 
      -3.59787355e-09       5.03347600e-10       8.12860835e-08 
       3.64266262e-09       5.03347600e-10       8.12860837e-08 
       3.59782737e-09       5.03347627e-10       8.12860837e-08 
      -3.64270880e-09       5.03347627e-10       8.12860835e-08 
      -3.59787355e-09       5.03347600e-10       8.12860835e-08 
       3.72704623e-09       5.34930503e-10       8.63864363e-08 
       3.68117181e-09       5.34930530e-10       8.63864363e-08 
      -3.72709330e-09       5.34930530e-10       8.63864361e-08 
      -3.68121933e-09       5.34930503e-10       8.63864361e-08 
       3.72704623e-09       5.34930503e-10       8.63864363e-08 
       3.68117226e-09       5.34930530e-10       8.63864362e-08 
      -3.72709330e-09       5.34930530e-10       8.63864361e-08 
      -3.68121933e-09       5.34930503e-10       8.63864361e-08 
       3.80904686e-09       5.67226155e-10       9.16018922e-08 
       3.76216347e-09       5.67226197e-10       9.16018922e-08 
      -3.80909482e-09       5.67226197e-10       9.16018920e-08 
      -3.76221143e-09       5.67226155e-10       9.16018920e-08 
       3.80904686e-09       5.67226155e-10       9.16018922e-08 
       3.76216347e-09       5.67226197e-10       9.16018922e-08 
      -3.80909482e-09       5.67226197e-10       9.16018920e-08 
      -3.76221143e-09       5.67226155e-10       9.16018920e-08 
       3.88883548e-09       6.00215114e-10       9.69293109e-08 
       3.84096976e-09       6.00215141e-10       9.69293109e-08 
      -3.88888433e-09       6.00215141e-10       9.69293107e-08 
      -3.84101861e-09       6.00215114e-10       9.69293107e-08 
       3.88883548e-09       6.00215114e-10       9.69293109e-08 
       3.84096976e-09       6.00215141e-10       9.69293109e-08 
      -3.88888433e-09       6.00215141e-10       9.69293107e-08 
      -3.84101861e-09       6.00215114e-10       9.69293107e-08 
       3.96641164e-09       6.33878422e-10       1.02365630e-07 
       3.91759158e-09       6.33878464e-10       1.02365630e-07 
      -3.96646049e-09       6.33878464e-10       1.02365630e-07 
      -3.91764043e-09       6.33878422e-10       1.02365630e-07 
       3.96641164e-09       6.33878422e-10       1.02365630e-07 
       3.91759158e-09       6.33878464e-10       1.02365630e-07 
      -3.96646049e-09       6.33878464e-10       1.02365630e-07 
      -3.91764043e-09       6.33878422e-10       1.02365630e-07 
       4.04177536e-09       6.68197109e-10       1.07907788e-07 
       3.99202715e-09       6.68197137e-10       1.07907788e-07 
      -4.04182510e-09       6.68197137e-10       1.07907788e-07 
      -3.99207689e-09       6.68197109e-10       1.07907788e-07 
       4.04177536e-09       6.68197109e-10       1.07907788e-07 
       3.99202715e-09       6.68197137e-10       1.07907788e-07 
      -4.04182510e-09       6.68197137e-10       1.07907788e-07 
      -3.99207689e-09       6.68197109e-10       1.07907788e-07 
       4.11492618e-09       7.03152231e-10       1.13552723e-07 
       4.06427780e-09       7.03152259e-10       1.13552723e-07 
      -4.11497725e-09       7.03152259e-10       1.13552723e-07 
      -4.06432887e-09       7.03152231e-10       1.13552723e-07 
       4.11492618e-09       7.03152231e-10       1.13552723e-07 
       4.06427780e-09       7.03152259e-10       1.13552723e-07 
      -4.11497725e-09       7.03152259e-10       1.13552723e-07 
      -4.06432887e-09       7.03152231e-10       1.13552723e-07 
       4.18586499e-09       7.38724804e-10       1.19297372e-07 
       4.13434309e-09       7.38724831e-10       1.19297372e-07 
      -4.18591695e-09       7.38724831e-10       1.19297372e-07 
      -4.13439505e-09       7.38724804e-10       1.19297372e-07 
       4.18586499e-09       7.38724804e-10       1.19297372e-07 
       4.13434309e-09       7.38724831e-10       1.19297372e-07 
      -4.18591695e-09       7.38724831e-10       1.19297372e-07 
      -4.13439505e-09       7.38724804e-10       1.19297372e-07 
       4.25459090e-09       7.74895884e-10       1.25138673e-07 
       4.20222346e-09       7.74895911e-10       1.25138673e-07 
      -4.25464375e-09       7.74895911e-10       1.25138673e-07 
      -4.20227675e-09       7.74895884e-10       1.25138673e-07 
       4.25459090e-09       7.74895884e-10       1.25138673e-07 
       4.20222346e-09       7.74895911e-10       1.25138673e-07 
      -4.25464375e-09       7.74895911e-10       1.25138673e-07 
      -4.20227675e-09       7.74895884e-10       1.25138673e-07 
       4.32110525e-09       8.11646486e-10       1.31073565e-07 
       4.26791935e-09       8.11646514e-10       1.31073565e-07 
      -4.32115854e-09       8.11646514e-10       1.31073564e-07 
      -4.26797220e-09       8.11646486e-10       1.31073564e-07 
       4.32110525e-09       8.11646486e-10       1.31073565e-07 
       4.26791935e-09       8.11646514e-10       1.31073565e-07 