# vtk DataFile Version 2.0
./output/onsasExample_nonLinearCantileverBlade_staitc3D_no_pitch numElements=10/onsasExample_nonLinearCantileverBlade_staitc3D_no_pitch numElements=10_0017.vtk
ASCII
DATASET UNSTRUCTURED_GRID

POINTS 800 float
       3.510704e-24      -7.180703e-02      -7.180703e-02 
       4.415573e-24       7.180703e-02      -7.180703e-02 
      -3.510704e-24       7.180703e-02       7.180703e-02 
      -4.415573e-24      -7.180703e-02       7.180703e-02 
       1.000000e-01      -7.180703e-02      -7.180703e-02 
       1.000000e-01       7.180703e-02      -7.180703e-02 
       1.000000e-01       7.180703e-02       7.180704e-02 
       1.000000e-01      -7.180703e-02       7.180704e-02 
       1.000000e-01      -7.180703e-02      -7.180703e-02 
       1.000000e-01       7.180703e-02      -7.180703e-02 
       1.000000e-01       7.180703e-02       7.180704e-02 
       1.000000e-01      -7.180703e-02       7.180704e-02 
       2.000000e-01      -7.180703e-02      -7.180702e-02 
       2.000000e-01       7.180703e-02      -7.180702e-02 
       2.000000e-01       7.180703e-02       7.180704e-02 
       2.000000e-01      -7.180703e-02       7.180704e-02 
       2.000000e-01      -7.180703e-02      -7.180702e-02 
       2.000000e-01       7.180703e-02      -7.180702e-02 
       2.000000e-01       7.180703e-02       7.180704e-02 
       2.000000e-01      -7.180703e-02       7.180704e-02 
       3.000000e-01      -7.180703e-02      -7.180701e-02 
       3.000000e-01       7.180703e-02      -7.180701e-02 
       3.000000e-01       7.180703e-02       7.180706e-02 
       3.000000e-01      -7.180703e-02       7.180706e-02 
       3.000000e-01      -7.180703e-02      -7.180701e-02 
       3.000000e-01       7.180703e-02      -7.180701e-02 
       3.000000e-01       7.180703e-02       7.180706e-02 
       3.000000e-01      -7.180703e-02       7.180706e-02 
       4.000000e-01      -7.180703e-02      -7.180699e-02 
       4.000000e-01       7.180703e-02      -7.180699e-02 
       4.000000e-01       7.180703e-02       7.180708e-02 
       4.000000e-01      -7.180703e-02       7.180708e-02 
       4.000000e-01      -7.180703e-02      -7.180699e-02 
       4.000000e-01       7.180703e-02      -7.180699e-02 
       4.000000e-01       7.180703e-02       7.180708e-02 
       4.000000e-01      -7.180703e-02       7.180708e-02 
       5.000000e-01      -7.180703e-02      -7.180697e-02 
       5.000000e-01       7.180704e-02      -7.180697e-02 
       5.000000e-01       7.180704e-02       7.180710e-02 
       5.000000e-01      -7.180703e-02       7.180710e-02 
       5.000000e-01      -7.180703e-02      -7.180697e-02 
       5.000000e-01       7.180704e-02      -7.180697e-02 
       5.000000e-01       7.180704e-02       7.180710e-02 
       5.000000e-01      -7.180703e-02       7.180710e-02 
       6.000000e-01      -7.180703e-02      -7.180694e-02 
       6.000000e-01       7.180704e-02      -7.180694e-02 
       6.000000e-01       7.180704e-02       7.180713e-02 
       6.000000e-01      -7.180703e-02       7.180713e-02 
       6.000000e-01      -7.180703e-02      -7.180694e-02 
       6.000000e-01       7.180704e-02      -7.180694e-02 
       6.000000e-01       7.180704e-02       7.180713e-02 
       6.000000e-01      -7.180703e-02       7.180713e-02 
       7.000000e-01      -7.180703e-02      -7.180691e-02 
       7.000000e-01       7.180704e-02      -7.180691e-02 
       7.000000e-01       7.180704e-02       7.180716e-02 
       7.000000e-01      -7.180703e-02       7.180716e-02 
       7.000000e-01      -7.180703e-02      -7.180691e-02 
       7.000000e-01       7.180704e-02      -7.180691e-02 
       7.000000e-01       7.180704e-02       7.180716e-02 
       7.000000e-01      -7.180703e-02       7.180716e-02 
       8.000000e-01      -7.180703e-02      -7.180687e-02 
       8.000000e-01       7.180704e-02      -7.180687e-02 
       8.000000e-01       7.180704e-02       7.180720e-02 
       8.000000e-01      -7.180703e-02       7.180720e-02 
       8.000000e-01      -7.180703e-02      -7.180687e-02 
       8.000000e-01       7.180704e-02      -7.180687e-02 
       8.000000e-01       7.180704e-02       7.180720e-02 
       8.000000e-01      -7.180703e-02       7.180720e-02 
       9.000000e-01      -7.180702e-02      -7.180682e-02 
       9.000000e-01       7.180704e-02      -7.180682e-02 
       9.000000e-01       7.180704e-02       7.180724e-02 
       9.000000e-01      -7.180702e-02       7.180724e-02 
       9.000000e-01      -7.180702e-02      -7.180682e-02 
       9.000000e-01       7.180704e-02      -7.180682e-02 
       9.000000e-01       7.180704e-02       7.180724e-02 
       9.000000e-01      -7.180702e-02       7.180724e-02 
       1.000000e+00      -7.180702e-02      -7.180678e-02 
       1.000000e+00       7.180704e-02      -7.180678e-02 
       1.000000e+00       7.180704e-02       7.180729e-02 
       1.000000e+00      -7.180702e-02       7.180729e-02 
       1.000000e+00      -7.180702e-02      -7.180678e-02 
       1.000000e+00       7.180704e-02      -7.180678e-02 
       1.000000e+00       7.180704e-02       7.180729e-02 
       1.000000e+00      -7.180702e-02       7.180729e-02 
       1.100000e+00      -7.180702e-02      -7.180673e-02 
       1.100000e+00       7.180705e-02      -7.180673e-02 
       1.100000e+00       7.180705e-02       7.180734e-02 
       1.100000e+00      -7.180702e-02       7.180734e-02 
       1.100000e+00      -7.180702e-02      -7.180673e-02 
       1.100000e+00       7.180705e-02      -7.180673e-02 
       1.100000e+00       7.180705e-02       7.180734e-02 
       1.100000e+00      -7.180702e-02       7.180734e-02 
       1.200000e+00      -7.180702e-02      -7.180667e-02 
       1.200000e+00       7.180705e-02      -7.180667e-02 
       1.200000e+00       7.180705e-02       7.180740e-02 
       1.200000e+00      -7.180702e-02       7.180740e-02 
       1.200000e+00      -7.180702e-02      -7.180667e-02 
       1.200000e+00       7.180705e-02      -7.180667e-02 
       1.200000e+00       7.180705e-02       7.180740e-02 
       1.200000e+00      -7.180702e-02       7.180740e-02 
       1.300000e+00      -7.180701e-02      -7.180661e-02 
       1.300000e+00       7.180705e-02      -7.180661e-02 
       1.300000e+00       7.180705e-02       7.180746e-02 
       1.300000e+00      -7.180701e-02       7.180746e-02 
       1.300000e+00      -7.180701e-02      -7.180661e-02 
       1.300000e+00       7.180705e-02      -7.180661e-02 
       1.300000e+00       7.180705e-02       7.180746e-02 
       1.300000e+00      -7.180701e-02       7.180746e-02 
       1.400000e+00      -7.180701e-02      -7.180655e-02 
       1.400000e+00       7.180705e-02      -7.180655e-02 
       1.400000e+00       7.180705e-02       7.180752e-02 
       1.400000e+00      -7.180701e-02       7.180752e-02 
       1.400000e+00      -7.180701e-02      -7.180655e-02 
       1.400000e+00       7.180705e-02      -7.180655e-02 
       1.400000e+00       7.180705e-02       7.180752e-02 
       1.400000e+00      -7.180701e-02       7.180752e-02 
       1.500000e+00      -7.180701e-02      -7.180648e-02 
       1.500000e+00       7.180706e-02      -7.180648e-02 
       1.500000e+00       7.180706e-02       7.180759e-02 
       1.500000e+00      -7.180701e-02       7.180759e-02 
       1.500000e+00      -7.180701e-02      -7.180648e-02 
       1.500000e+00       7.180706e-02      -7.180648e-02 
       1.500000e+00       7.180706e-02       7.180759e-02 
       1.500000e+00      -7.180701e-02       7.180759e-02 
       1.600000e+00      -7.180701e-02      -7.180641e-02 
       1.600000e+00       7.180706e-02      -7.180641e-02 
       1.600000e+00       7.180706e-02       7.180766e-02 
       1.600000e+00      -7.180701e-02       7.180766e-02 
       1.600000e+00      -7.180701e-02      -7.180641e-02 
       1.600000e+00       7.180706e-02      -7.180641e-02 
       1.600000e+00       7.180706e-02       7.180766e-02 
       1.600000e+00      -7.180701e-02       7.180766e-02 
       1.700000e+00      -7.180700e-02      -7.180633e-02 
       1.700000e+00       7.180706e-02      -7.180633e-02 
       1.700000e+00       7.180706e-02       7.180774e-02 
       1.700000e+00      -7.180700e-02       7.180774e-02 
       1.700000e+00      -7.180700e-02      -7.180633e-02 
       1.700000e+00       7.180706e-02      -7.180633e-02 
       1.700000e+00       7.180706e-02       7.180774e-02 
       1.700000e+00      -7.180700e-02       7.180774e-02 
       1.800000e+00      -7.180700e-02      -7.180625e-02 
       1.800000e+00       7.180707e-02      -7.180625e-02 
       1.800000e+00       7.180707e-02       7.180782e-02 
       1.800000e+00      -7.180700e-02       7.180782e-02 
       1.800000e+00      -7.180700e-02      -7.180625e-02 
       1.800000e+00       7.180707e-02      -7.180625e-02 
       1.800000e+00       7.180707e-02       7.180782e-02 
       1.800000e+00      -7.180700e-02       7.180782e-02 
       1.900000e+00      -7.180699e-02      -7.180617e-02 
       1.900000e+00       7.180707e-02      -7.180617e-02 
       1.900000e+00       7.180707e-02       7.180790e-02 
       1.900000e+00      -7.180699e-02       7.180790e-02 
       1.900000e+00      -7.180699e-02      -7.180617e-02 
       1.900000e+00       7.180707e-02      -7.180617e-02 
       1.900000e+00       7.180707e-02       7.180790e-02 
       1.900000e+00      -7.180699e-02       7.180790e-02 
       2.000000e+00      -7.180699e-02      -7.180608e-02 
       2.000000e+00       7.180708e-02      -7.180608e-02 
       2.000000e+00       7.180708e-02       7.180799e-02 
       2.000000e+00      -7.180699e-02       7.180799e-02 
       2.000000e+00      -7.180699e-02      -7.180608e-02 
       2.000000e+00       7.180708e-02      -7.180608e-02 
       2.000000e+00       7.180708e-02       7.180799e-02 
       2.000000e+00      -7.180699e-02       7.180799e-02 
       2.100000e+00      -7.180699e-02      -7.180599e-02 
[...]
POINT_DATA       800 
VECTORS Displacements float
       3.51070374e-24       0.00000000e+00      -1.38777878e-17 
       4.41557325e-24       0.00000000e+00      -1.38777878e-17 
      -3.51070374e-24       0.00000000e+00       1.38777878e-17 
      -4.41557325e-24       0.00000000e+00       1.38777878e-17 
       4.04822378e-09       1.20220153e-10       2.70805664e-09 
       3.70401902e-09       1.20220167e-10       2.70805596e-09 
      -4.04945032e-09       1.20220806e-10       2.70805578e-09 
      -3.70524555e-09       1.20220792e-10       2.70805646e-09 
       4.04822378e-09       1.20220153e-10       2.70805664e-09 
       3.70401902e-09       1.20220167e-10       2.70805596e-09 
      -4.04945032e-09       1.20220806e-10       2.70805578e-09 
      -3.70524555e-09       1.20220792e-10       2.70805646e-09 
       8.01864958e-09       4.77811152e-10       1.07630685e-08 
       7.33685379e-09       4.77811166e-10       1.07630672e-08 
      -8.02110536e-09       4.77812429e-10       1.07630664e-08 
      -7.33930958e-09       4.77812415e-10       1.07630677e-08 
       8.01864958e-09       4.77811152e-10       1.07630685e-08 
       7.33685379e-09       4.77811166e-10       1.07630672e-08 
      -8.02110536e-09       4.77812429e-10       1.07630664e-08 
      -7.33930958e-09       4.77812415e-10       1.07630677e-08 
       1.19112774e-08       1.06816775e-09       2.40612997e-08 
       1.08985043e-08       1.06816776e-09       2.40612976e-08 
      -1.19149651e-08       1.06816964e-09       2.40612958e-08 
      -1.09021920e-08       1.06816964e-09       2.40612979e-08 
       1.19112774e-08       1.06816775e-09       2.40612997e-08 
       1.08985043e-08       1.06816776e-09       2.40612976e-08 
      -1.19149651e-08       1.06816964e-09       2.40612958e-08 
      -1.09021920e-08       1.06816964e-09       2.40612979e-08 
       1.57261072e-08       1.88668474e-09       4.24990140e-08 
       1.43889707e-08       1.88668474e-09       4.24990113e-08 
      -1.57310296e-08       1.88668724e-09       4.24990081e-08 
      -1.43938930e-08       1.88668722e-09       4.24990109e-08 
       1.57261072e-08       1.88668474e-09       4.24990140e-08 
       1.43889707e-08       1.88668474e-09       4.24990113e-08 
      -1.57310296e-08       1.88668724e-09       4.24990081e-08 
      -1.43938930e-08       1.88668722e-09       4.24990109e-08 
       1.94631391e-08       2.92875692e-09       6.59724755e-08 
       1.78082529e-08       2.92875692e-09       6.59724720e-08 
      -1.94692987e-08       2.92875998e-09       6.59724672e-08 
      -1.78144122e-08       2.92875998e-09       6.59724707e-08 
       1.94631391e-08       2.92875692e-09       6.59724755e-08 
       1.78082529e-08       2.92875692e-09       6.59724720e-08 
      -1.94692987e-08       2.92875998e-09       6.59724672e-08 
      -1.78144122e-08       2.92875998e-09       6.59724707e-08 
       2.31223732e-08       4.18977902e-09       9.43779482e-08 
       2.11563508e-08       4.18977902e-09       9.43779439e-08 
      -2.31297723e-08       4.18978265e-09       9.43779371e-08 
      -2.11637499e-08       4.18978266e-09       9.43779413e-08 
       2.31223732e-08       4.18977902e-09       9.43779482e-08 
       2.11563508e-08       4.18977902e-09       9.43779439e-08 
      -2.31297723e-08       4.18978265e-09       9.43779371e-08 
      -2.11637499e-08       4.18978266e-09       9.43779413e-08 
       2.67038094e-08       5.66514585e-09       1.27611696e-07 
       2.44332646e-08       5.66514585e-09       1.27611691e-07 
      -2.67124508e-08       5.66515004e-09       1.27611682e-07 
      -2.44419061e-08       5.66515006e-09       1.27611687e-07 
       2.67038094e-08       5.66514585e-09       1.27611696e-07 
       2.44332646e-08       5.66514585e-09       1.27611691e-07 
      -2.67124508e-08       5.66515004e-09       1.27611682e-07 
      -2.44419061e-08       5.66515006e-09       1.27611687e-07 
       3.02074478e-08       7.35025221e-09       1.65569983e-07 
       2.76389944e-08       7.35025220e-09       1.65569977e-07 
      -3.02173337e-08       7.35025696e-09       1.65569965e-07 
      -2.76488804e-08       7.35025696e-09       1.65569971e-07 
       3.02074478e-08       7.35025221e-09       1.65569983e-07 
       2.76389944e-08       7.35025220e-09       1.65569977e-07 
      -3.02173337e-08       7.35025696e-09       1.65569965e-07 
      -2.76488804e-08       7.35025696e-09       1.65569971e-07 
       3.36332882e-08       9.24049283e-09       2.08149072e-07 
       3.07735400e-08       9.24049282e-09       2.08149066e-07 
      -3.36444211e-08       9.24049810e-09       2.08149051e-07 
      -3.07846730e-08       9.24049812e-09       2.08149058e-07 
       3.36332882e-08       9.24049283e-09       2.08149072e-07 
       3.07735400e-08       9.24049282e-09       2.08149066e-07 
      -3.36444211e-08       9.24049810e-09       2.08149051e-07 
      -3.07846730e-08       9.24049812e-09       2.08149058e-07 
       3.69813309e-08       1.13312626e-08       2.55245229e-07 
       3.38369019e-08       1.13312625e-08       2.55245222e-07 
      -3.69937131e-08       1.13312683e-08       2.55245204e-07 
      -3.38492838e-08       1.13312684e-08       2.55245212e-07 
       3.69813309e-08       1.13312625e-08       2.55245229e-07 
       3.38369017e-08       1.13312625e-08       2.55245222e-07 
      -3.69937131e-08       1.13312684e-08       2.55245204e-07 
      -3.38492839e-08       1.13312684e-08       2.55245212e-07 
       4.02558897e-08       1.36180370e-08       3.06756537e-07 
       3.68330451e-08       1.36180370e-08       3.06756529e-07 
      -4.02690850e-08       1.36180431e-08       3.06756508e-07 
      -3.68462403e-08       1.36180431e-08       3.06756516e-07 
       4.02558897e-08       1.36180370e-08       3.06756537e-07 
       3.68330451e-08       1.36180370e-08       3.06756529e-07 
      -4.02690850e-08       1.36180431e-08       3.06756508e-07 
      -3.68462403e-08       1.36180431e-08       3.06756516e-07 
       4.34608380e-08       1.60966149e-08       3.62588359e-07 
       3.97654956e-08       1.60966149e-08       3.62588350e-07 
      -4.34748519e-08       1.60966212e-08       3.62588326e-07 
      -3.97795097e-08       1.60966212e-08       3.62588335e-07 
       4.34608380e-08       1.60966149e-08       3.62588359e-07 
       3.97654956e-08       1.60966149e-08       3.62588350e-07 
      -4.34748519e-08       1.60966212e-08       3.62588326e-07 
      -3.97795097e-08       1.60966212e-08       3.62588335e-07 
       4.65961758e-08       1.87628756e-08       4.22647879e-07 
       4.26342530e-08       1.87628756e-08       4.22647870e-07 
      -4.66110148e-08       1.87628822e-08       4.22647842e-07 
      -4.26490920e-08       1.87628822e-08       4.22647851e-07 
       4.65961758e-08       1.87628756e-08       4.22647879e-07 
       4.26342530e-08       1.87628756e-08       4.22647870e-07 
      -4.66110148e-08       1.87628822e-08       4.22647842e-07 
      -4.26490920e-08       1.87628822e-08       4.22647851e-07 
       4.96619033e-08       2.16126989e-08       4.86842280e-07 
       4.54393179e-08       2.16126989e-08       4.86842271e-07 
      -4.96775727e-08       2.16127056e-08       4.86842239e-07 
      -4.54549873e-08       2.16127056e-08       4.86842249e-07 
       4.96619033e-08       2.16126989e-08       4.86842280e-07 
       4.54393179e-08       2.16126989e-08       4.86842271e-07 
      -4.96775727e-08       2.16127056e-08       4.86842239e-07 
      -4.54549873e-08       2.16127056e-08       4.86842249e-07 
       5.26580202e-08       2.46419642e-08       5.55078747e-07 
       4.81806897e-08       2.46419641e-08       5.55078737e-07 
      -5.26745263e-08       2.46419711e-08       5.55078702e-07 
      -4.81971958e-08       2.46419711e-08       5.55078712e-07 
       5.26580202e-08       2.46419642e-08       5.55078747e-07 
       4.81806897e-08       2.46419641e-08       5.55078737e-07 
      -5.26745263e-08       2.46419711e-08       5.55078702e-07 
      -4.81971958e-08       2.46419711e-08       5.55078712e-07 
       5.55845268e-08       2.78465510e-08       6.27264463e-07 
       5.08583686e-08       2.78465509e-08       6.27264452e-07 
      -5.56018751e-08       2.78465581e-08       6.27264413e-07 
      -5.08757170e-08       2.78465581e-08       6.27264423e-07 
       5.55845268e-08       2.78465510e-08       6.27264463e-07 
       5.08583686e-08       2.78465509e-08       6.27264452e-07 
      -5.56018751e-08       2.78465581e-08       6.27264413e-07 
      -5.08757170e-08       2.78465581e-08       6.27264423e-07 
       5.84414235e-08       3.12223388e-08       7.03306611e-07 
       5.34723552e-08       3.12223388e-08       7.03306599e-07 
      -5.84596187e-08       3.12223461e-08       7.03306556e-07 
      -5.34905504e-08       3.12223462e-08       7.03306567e-07 
       5.84414235e-08       3.12223388e-08       7.03306611e-07 
       5.34723552e-08       3.12223388e-08       7.03306599e-07 
      -5.84596187e-08       3.12223461e-08       7.03306556e-07 
      -5.34905504e-08       3.12223462e-08       7.03306567e-07 
       6.12287099e-08       3.47652074e-08       7.83112374e-07 
       5.60226492e-08       3.47652073e-08       7.83112362e-07 
      -6.12477578e-08       3.47652148e-08       7.83112314e-07 
      -5.60416968e-08       3.47652149e-08       7.83112326e-07 
       6.12287099e-08       3.47652074e-08       7.83112374e-07 
       5.60226492e-08       3.47652073e-08       7.83112362e-07 
      -6.12477578e-08       3.47652148e-08       7.83112314e-07 
      -5.60416968e-08       3.47652149e-08       7.83112326e-07 
       6.39463864e-08       3.84710360e-08       8.66588937e-07 
       5.85092508e-08       3.84710360e-08       8.66588925e-07 
      -6.39662918e-08       3.84710437e-08       8.66588872e-07 
      -5.85291560e-08       3.84710437e-08       8.66588885e-07 
       6.39463864e-08       3.84710360e-08       8.66588937e-07 
       5.85092508e-08       3.84710360e-08       8.66588925e-07 
      -6.39662918e-08       3.84710437e-08       8.66588872e-07 
      -5.85291560e-08       3.84710437e-08       8.66588885e-07 
       6.65944526e-08       4.23357044e-08       9.53643483e-07 
       6.09321593e-08       4.23357043e-08       9.53643470e-07 
      -6.66152209e-08       4.23357122e-08       9.53643413e-07 
      -6.09529278e-08       4.23357123e-08       9.53643426e-07 
       6.65944526e-08       4.23357044e-08       9.53643483e-07 
       6.09321593e-08       4.23357043e-08       9.53643470e-07 
      -6.66152209e-08       4.23357122e-08       9.53643413e-07 
      -6.09529278e-08       4.23357123e-08       9.53643426e-07 
       6.91771578e-08       4.63551729e-08       1.04418501e-06 
       6.32952766e-08       4.63551728e-08       1.04418500e-06 
      -6.91984852e-08       4.63551807e-08       1.04418494e-06 
      -6.33166040e-08       4.63551807e-08       1.04418495e-06 
       6.91771578e-08       4.63551729e-08       1.04418501e-06 
       6.32952766e-08       4.63551728e-08       1.04418500e-06 
      -6.91984852e-08       4.63551807e-08       1.04418494e-06 
      -6.33166040e-08       4.63551807e-08       1.04418495e-06 
       7.16984405e-08       5.05257249e-08       1.13812982e-06 
       6.56021930e-08       5.05257248e-08       1.13812980e-06 
      -7.17203346e-08       5.05257327e-08       1.13812974e-06 
      -6.56240871e-08       5.05257328e-08       1.13812975e-06 
       7.16984405e-08       5.05257249e-08       1.13812982e-06 
       6.56021930e-08       5.05257248e-08       1.13812980e-06 
      -7.17203346e-08       5.05257327e-08       1.13812974e-06 
      -6.56240871e-08       5.05257328e-08       1.13812975e-06 
       7.41583026e-08       5.48437248e-08       1.23539599e-06 
       6.78529100e-08       5.48437247e-08       1.23539598e-06 
      -7.41807686e-08       5.48437326e-08       1.23539591e-06 
      -6.78753760e-08       5.48437327e-08       1.23539592e-06 
       7.41583026e-08       5.48437248e-08       1.23539599e-06 
       6.78529100e-08       5.48437247e-08       1.23539598e-06 
      -7.41807686e-08       5.48437326e-08       1.23539591e-06 
      -6.78753760e-08       5.48437327e-08       1.23539592e-06 
       7.65567418e-08       5.93055368e-08       1.33590164e-06 
       7.00474252e-08       5.93055367e-08       1.33590163e-06 
      -7.65797883e-08       5.93055446e-08       1.33590155e-06 
      -7.00704721e-08       5.93055447e-08       1.33590157e-06 
       7.65567418e-08       5.93055368e-08       1.33590164e-06 
       7.00474252e-08       5.93055367e-08       1.33590163e-06 
      -7.65797883e-08       5.93055446e-08       1.33590155e-06 
      -7.00704721e-08       5.93055447e-08       1.33590157e-06 
       7.88937595e-08       6.39075252e-08       1.43956487e-06 
       7.21857409e-08       6.39075251e-08       1.43956486e-06 
      -7.89173931e-08       6.39075330e-08       1.43956478e-06 
      -7.22093740e-08       6.39075331e-08       1.43956479e-06 
       7.88937595e-08       6.39075252e-08       1.43956487e-06 
       7.21857409e-08       6.39075251e-08       1.43956486e-06 
      -7.89173931e-08       6.39075330e-08       1.43956478e-06 
      -7.22093740e-08       6.39075331e-08       1.43956479e-06 
       8.11693557e-08       6.86460544e-08       1.54630378e-06 
       7.42678559e-08       6.86460543e-08       1.54630377e-06 
      -8.11935821e-08       6.86460622e-08       1.54630368e-06 
      -7.42920823e-08       6.86460623e-08       1.54630370e-06 
       8.11693557e-08       6.86460544e-08       1.54630378e-06 
       7.42678559e-08       6.86460543e-08       1.54630377e-06 
      -8.11935821e-08       6.86460622e-08       1.54630368e-06 
      -7.42920823e-08       6.86460623e-08       1.54630370e-06 
       8.33835303e-08       7.35174886e-08       1.65603648e-06 
       7.62937709e-08       7.35174885e-08       1.65603646e-06 
      -8.34083567e-08       7.35174964e-08       1.65603637e-06 
      -7.63185972e-08       7.35174965e-08       1.65603639e-06 
       8.33835303e-08       7.35174886e-08       1.65603648e-06 
       7.62937709e-08       7.35174885e-08       1.65603646e-06 
      -8.34083567e-08       7.35174964e-08       1.65603637e-06 
      -7.63185972e-08       7.35174965e-08       1.65603639e-06 
       8.55362838e-08       7.85181922e-08       1.76868106e-06 
       7.82634859e-08       7.85181921e-08       1.76868105e-06 
      -8.55617146e-08       7.85181999e-08       1.76868095e-06 
      -7.82889171e-08       7.85182001e-08       1.76868097e-06 
       8.55362838e-08       7.85181922e-08       1.76868106e-06 
       7.82634859e-08       7.85181921e-08       1.76868105e-06 
      -8.55617146e-08       7.85181999e-08       1.76868095e-06 
      -7.82889171e-08       7.85182001e-08       1.76868097e-06 
       8.76276154e-08       8.36445294e-08       1.88415564e-06 
       8.01770006e-08       8.36445292e-08       1.88415562e-06 
      -8.76536581e-08       8.36445371e-08       1.88415553e-06 
      -8.02030438e-08       8.36445373e-08       1.88415554e-06 
       8.76276154e-08       8.36445294e-08       1.88415564e-06 
       8.01770006e-08       8.36445292e-08       1.88415562e-06 
      -8.76536581e-08       8.36445371e-08       1.88415553e-06 
      -8.02030438e-08       8.36445373e-08       1.88415554e-06 
       8.96575258e-08       8.88928645e-08       2.00237831e-06 
       8.20343158e-08       8.88928644e-08       2.00237829e-06 
      -8.96841859e-08       8.88928723e-08       2.00237819e-06 
      -8.20609758e-08       8.88928724e-08       2.00237821e-06 
       8.96575258e-08       8.88928646e-08       2.00237831e-06 
       8.20343158e-08       8.88928644e-08       2.00237829e-06 
      -8.96841863e-08       8.88928722e-08       2.00237819e-06 
      -8.20609762e-08       8.88928724e-08       2.00237821e-06 
       9.16302132e-08       9.42596428e-08       2.12326900e-06 
       8.38392809e-08       9.42596426e-08       2.12326898e-06 
      -9.16572893e-08       9.42596504e-08       2.12326888e-06 
      -8.38663570e-08       9.42596505e-08       2.12326889e-06 
       9.16302132e-08       9.42596428e-08       2.12326900e-06 
       8.38392809e-08       9.42596426e-08       2.12326898e-06 
      -9.16572893e-08       9.42596504e-08       2.12326888e-06 
      -8.38663570e-08       9.42596505e-08       2.12326889e-06 
       9.35496676e-08       9.97416323e-08       2.24675491e-06 
       8.55955382e-08       9.97416321e-08       2.24675489e-06 
      -9.35771669e-08       9.97416398e-08       2.24675478e-06 
      -8.56230375e-08       9.97416400e-08       2.24675480e-06 
       9.35496676e-08       9.97416323e-08       2.24675491e-06 
       8.55955382e-08       9.97416321e-08       2.24675489e-06 
      -9.35771669e-08       9.97416398e-08       2.24675478e-06 
      -8.56230375e-08       9.97416400e-08       2.24675480e-06 
       9.54158903e-08       1.05335682e-07       2.37276506e-06 
       8.73030892e-08       1.05335682e-07       2.37276504e-06 
      -9.54438177e-08       1.05335690e-07       2.37276493e-06 
      -8.73310166e-08       1.05335690e-07       2.37276495e-06 
       9.54158903e-08       1.05335682e-07       2.37276506e-06 
       8.73030892e-08       1.05335682e-07       2.37276504e-06 
      -9.54438177e-08       1.05335690e-07       2.37276493e-06 
      -8.73310166e-08       1.05335690e-07       2.37276495e-06 
       9.72288796e-08       1.11038641e-07       2.50122848e-06 
       8.89619320e-08       1.11038641e-07       2.50122846e-06 
      -9.72572431e-08       1.11038649e-07       2.50122834e-06 
      -8.89902956e-08       1.11038649e-07       2.50122836e-06 
       9.72288796e-08       1.11038641e-07       2.50122848e-06 
       8.89619320e-08       1.11038641e-07       2.50122846e-06 
      -9.72572431e-08       1.11038649e-07       2.50122834e-06 
      -8.89902956e-08       1.11038649e-07       2.50122836e-06 
       9.89886368e-08       1.16847359e-07       2.63207419e-06 
       9.05720676e-08       1.16847359e-07       2.63207417e-06 
      -9.90174427e-08       1.16847366e-07       2.63207404e-06 
      -9.06008735e-08       1.16847367e-07       2.63207406e-06 
       9.89886368e-08       1.16847359e-07       2.63207419e-06 
       9.05720676e-08       1.16847359e-07       2.63207417e-06 
      -9.90174427e-08       1.16847366e-07       2.63207404e-06 
      -9.06008735e-08       1.16847367e-07       2.63207406e-06 
       1.00695162e-07       1.22758685e-07       2.76523121e-06 
       9.21334959e-08       1.22758684e-07       2.76523119e-06 
      -1.00724416e-07       1.22758692e-07       2.76523106e-06 
      -9.21627503e-08       1.22758692e-07       2.76523108e-06 
       1.00695162e-07       1.22758685e-07       2.76523121e-06 
       9.21334959e-08       1.22758684e-07       2.76523119e-06 
      -1.00724416e-07       1.22758692e-07       2.76523106e-06 
      -9.21627503e-08       1.22758692e-07       2.76523108e-06 
       1.02348454e-07       1.28769466e-07       2.90062856e-06 
       9.36462174e-08       1.28769466e-07       2.90062854e-06 
      -1.02378163e-07       1.28769473e-07       2.90062841e-06 
      -9.36759257e-08       1.28769474e-07       2.90062843e-06 
       1.02348454e-07       1.28769466e-07       2.90062856e-06 
       9.36462174e-08       1.28769466e-07       2.90062854e-06 
      -1.02378163e-07       1.28769473e-07       2.90062841e-06 
      -9.36759257e-08       1.28769474e-07       2.90062843e-06 
       1.03948515e-07       1.34876554e-07       3.03819527e-06 
       9.51102326e-08       1.34876554e-07       3.03819525e-06 
      -1.03978683e-07       1.34876561e-07       3.03819511e-06 
      -9.51403996e-08       1.34876561e-07       3.03819513e-06 
       1.03948515e-07       1.34876554e-07       3.03819527e-06 
       9.51102326e-08       1.34876554e-07       3.03819525e-06 