# vtk DataFile Version 2.0
./output/onsasExample_nonLinearCantileverBlade_staitc3D_no_pitch numElements=10/onsasExample_nonLinearCantileverBlade_staitc3D_no_pitch numElements=10_0009.vtk
ASCII
DATASET UNSTRUCTURED_GRID

POINTS 800 float
      -3.097195e-26      -7.180703e-02      -7.180703e-02 
      -8.957090e-25       7.180703e-02      -7.180703e-02 
       3.097195e-26       7.180703e-02       7.180703e-02 
       8.957090e-25      -7.180703e-02       7.180703e-02 
       1.000000e-01      -7.180703e-02      -7.180703e-02 
       1.000000e-01       7.180703e-02      -7.180703e-02 
       1.000000e-01       7.180703e-02       7.180703e-02 
       1.000000e-01      -7.180703e-02       7.180703e-02 
       1.000000e-01      -7.180703e-02      -7.180703e-02 
       1.000000e-01       7.180703e-02      -7.180703e-02 
       1.000000e-01       7.180703e-02       7.180703e-02 
       1.000000e-01      -7.180703e-02       7.180703e-02 
       2.000000e-01      -7.180703e-02      -7.180703e-02 
       2.000000e-01       7.180703e-02      -7.180703e-02 
       2.000000e-01       7.180703e-02       7.180704e-02 
       2.000000e-01      -7.180703e-02       7.180704e-02 
       2.000000e-01      -7.180703e-02      -7.180703e-02 
       2.000000e-01       7.180703e-02      -7.180703e-02 
       2.000000e-01       7.180703e-02       7.180704e-02 
       2.000000e-01      -7.180703e-02       7.180704e-02 
       3.000000e-01      -7.180703e-02      -7.180702e-02 
       3.000000e-01       7.180703e-02      -7.180702e-02 
       3.000000e-01       7.180703e-02       7.180704e-02 
       3.000000e-01      -7.180703e-02       7.180704e-02 
       3.000000e-01      -7.180703e-02      -7.180702e-02 
       3.000000e-01       7.180703e-02      -7.180702e-02 
       3.000000e-01       7.180703e-02       7.180704e-02 
       3.000000e-01      -7.180703e-02       7.180704e-02 
       4.000000e-01      -7.180703e-02      -7.180702e-02 
       4.000000e-01       7.180703e-02      -7.180702e-02 
       4.000000e-01       7.180703e-02       7.180705e-02 
       4.000000e-01      -7.180703e-02       7.180705e-02 
       4.000000e-01      -7.180703e-02      -7.180702e-02 
       4.000000e-01       7.180703e-02      -7.180702e-02 
       4.000000e-01       7.180703e-02       7.180705e-02 
       4.000000e-01      -7.180703e-02       7.180705e-02 
       5.000000e-01      -7.180703e-02      -7.180701e-02 
       5.000000e-01       7.180703e-02      -7.180701e-02 
       5.000000e-01       7.180703e-02       7.180706e-02 
       5.000000e-01      -7.180703e-02       7.180706e-02 
       5.000000e-01      -7.180703e-02      -7.180701e-02 
       5.000000e-01       7.180703e-02      -7.180701e-02 
       5.000000e-01       7.180703e-02       7.180706e-02 
       5.000000e-01      -7.180703e-02       7.180706e-02 
       6.000000e-01      -7.180703e-02      -7.180700e-02 
       6.000000e-01       7.180703e-02      -7.180700e-02 
       6.000000e-01       7.180703e-02       7.180707e-02 
       6.000000e-01      -7.180703e-02       7.180707e-02 
       6.000000e-01      -7.180703e-02      -7.180700e-02 
       6.000000e-01       7.180703e-02      -7.180700e-02 
       6.000000e-01       7.180703e-02       7.180707e-02 
       6.000000e-01      -7.180703e-02       7.180707e-02 
       7.000000e-01      -7.180703e-02      -7.180699e-02 
       7.000000e-01       7.180703e-02      -7.180699e-02 
       7.000000e-01       7.180703e-02       7.180708e-02 
       7.000000e-01      -7.180703e-02       7.180708e-02 
       7.000000e-01      -7.180703e-02      -7.180699e-02 
       7.000000e-01       7.180703e-02      -7.180699e-02 
       7.000000e-01       7.180703e-02       7.180708e-02 
       7.000000e-01      -7.180703e-02       7.180708e-02 
       8.000000e-01      -7.180703e-02      -7.180698e-02 
       8.000000e-01       7.180703e-02      -7.180698e-02 
       8.000000e-01       7.180703e-02       7.180709e-02 
       8.000000e-01      -7.180703e-02       7.180709e-02 
       8.000000e-01      -7.180703e-02      -7.180698e-02 
       8.000000e-01       7.180703e-02      -7.180698e-02 
       8.000000e-01       7.180703e-02       7.180709e-02 
       8.000000e-01      -7.180703e-02       7.180709e-02 
       9.000000e-01      -7.180703e-02      -7.180696e-02 
       9.000000e-01       7.180703e-02      -7.180696e-02 
       9.000000e-01       7.180703e-02       7.180710e-02 
       9.000000e-01      -7.180703e-02       7.180710e-02 
       9.000000e-01      -7.180703e-02      -7.180696e-02 
       9.000000e-01       7.180703e-02      -7.180696e-02 
       9.000000e-01       7.180703e-02       7.180710e-02 
       9.000000e-01      -7.180703e-02       7.180710e-02 
       1.000000e+00      -7.180703e-02      -7.180695e-02 
       1.000000e+00       7.180703e-02      -7.180695e-02 
       1.000000e+00       7.180703e-02       7.180712e-02 
       1.000000e+00      -7.180703e-02       7.180712e-02 
       1.000000e+00      -7.180703e-02      -7.180695e-02 
       1.000000e+00       7.180703e-02      -7.180695e-02 
       1.000000e+00       7.180703e-02       7.180712e-02 
       1.000000e+00      -7.180703e-02       7.180712e-02 
       1.100000e+00      -7.180703e-02      -7.180693e-02 
       1.100000e+00       7.180703e-02      -7.180693e-02 
       1.100000e+00       7.180703e-02       7.180714e-02 
       1.100000e+00      -7.180703e-02       7.180714e-02 
       1.100000e+00      -7.180703e-02      -7.180693e-02 
       1.100000e+00       7.180703e-02      -7.180693e-02 
       1.100000e+00       7.180703e-02       7.180714e-02 
       1.100000e+00      -7.180703e-02       7.180714e-02 
       1.200000e+00      -7.180703e-02      -7.180691e-02 
       1.200000e+00       7.180703e-02      -7.180691e-02 
       1.200000e+00       7.180703e-02       7.180716e-02 
       1.200000e+00      -7.180703e-02       7.180716e-02 
       1.200000e+00      -7.180703e-02      -7.180691e-02 
       1.200000e+00       7.180703e-02      -7.180691e-02 
       1.200000e+00       7.180703e-02       7.180716e-02 
       1.200000e+00      -7.180703e-02       7.180716e-02 
       1.300000e+00      -7.180703e-02      -7.180689e-02 
       1.300000e+00       7.180704e-02      -7.180689e-02 
       1.300000e+00       7.180704e-02       7.180718e-02 
       1.300000e+00      -7.180703e-02       7.180718e-02 
       1.300000e+00      -7.180703e-02      -7.180689e-02 
       1.300000e+00       7.180704e-02      -7.180689e-02 
       1.300000e+00       7.180704e-02       7.180718e-02 
       1.300000e+00      -7.180703e-02       7.180718e-02 
       1.400000e+00      -7.180703e-02      -7.180687e-02 
       1.400000e+00       7.180704e-02      -7.180687e-02 
       1.400000e+00       7.180704e-02       7.180720e-02 
       1.400000e+00      -7.180703e-02       7.180720e-02 
       1.400000e+00      -7.180703e-02      -7.180687e-02 
       1.400000e+00       7.180704e-02      -7.180687e-02 
       1.400000e+00       7.180704e-02       7.180720e-02 
       1.400000e+00      -7.180703e-02       7.180720e-02 
       1.500000e+00      -7.180703e-02      -7.180685e-02 
       1.500000e+00       7.180704e-02      -7.180685e-02 
       1.500000e+00       7.180704e-02       7.180722e-02 
       1.500000e+00      -7.180703e-02       7.180722e-02 
       1.500000e+00      -7.180703e-02      -7.180685e-02 
       1.500000e+00       7.180704e-02      -7.180685e-02 
       1.500000e+00       7.180704e-02       7.180722e-02 
       1.500000e+00      -7.180703e-02       7.180722e-02 
       1.600000e+00      -7.180703e-02      -7.180682e-02 
       1.600000e+00       7.180704e-02      -7.180682e-02 
       1.600000e+00       7.180704e-02       7.180725e-02 
       1.600000e+00      -7.180703e-02       7.180725e-02 
       1.600000e+00      -7.180703e-02      -7.180682e-02 
       1.600000e+00       7.180704e-02      -7.180682e-02 
       1.600000e+00       7.180704e-02       7.180725e-02 
       1.600000e+00      -7.180703e-02       7.180725e-02 
       1.700000e+00      -7.180703e-02      -7.180680e-02 
       1.700000e+00       7.180704e-02      -7.180680e-02 
       1.700000e+00       7.180704e-02       7.180727e-02 
       1.700000e+00      -7.180703e-02       7.180727e-02 
       1.700000e+00      -7.180703e-02      -7.180680e-02 
       1.700000e+00       7.180704e-02      -7.180680e-02 
       1.700000e+00       7.180704e-02       7.180727e-02 
       1.700000e+00      -7.180703e-02       7.180727e-02 
       1.800000e+00      -7.180703e-02      -7.180677e-02 
       1.800000e+00       7.180704e-02      -7.180677e-02 
       1.800000e+00       7.180704e-02       7.180730e-02 
       1.800000e+00      -7.180703e-02       7.180730e-02 
       1.800000e+00      -7.180703e-02      -7.180677e-02 
       1.800000e+00       7.180704e-02      -7.180677e-02 
       1.800000e+00       7.180704e-02       7.180730e-02 
       1.800000e+00      -7.180703e-02       7.180730e-02 
       1.900000e+00      -7.180703e-02      -7.180674e-02 
       1.900000e+00       7.180704e-02      -7.180674e-02 
       1.900000e+00       7.180704e-02       7.180733e-02 
       1.900000e+00      -7.180703e-02       7.180733e-02 
       1.900000e+00      -7.180703e-02      -7.180674e-02 
       1.900000e+00       7.180704e-02      -7.180674e-02 
       1.900000e+00       7.180704e-02       7.180733e-02 
       1.900000e+00      -7.180703e-02       7.180733e-02 
       2.000000e+00      -7.180703e-02      -7.180671e-02 
       2.000000e+00       7.180704e-02      -7.180671e-02 
       2.000000e+00       7.180704e-02       7.180736e-02 
       2.000000e+00      -7.180703e-02       7.180736e-02 
       2.000000e+00      -7.180703e-02      -7.180671e-02 
       2.000000e+00       7.180704e-02      -7.180671e-02 
       2.000000e+00       7.180704e-02       7.180736e-02 
       2.000000e+00      -7.180703e-02       7.180736e-02 
       2.100000e+00      -7.180703e-02      -7.180668e-02 
[...]
POINT_DATA       800 
VECTORS Displacements float
      -3.09719514e-26       1.38777878e-17       0.00000000e+00 
      -8.95709002e-25       0.00000000e+00       1.38777878e-17 
       3.09719514e-26      -1.38777878e-17       0.00000000e+00 
       8.95709002e-25       0.00000000e+00      -1.38777878e-17 
       1.33044910e-09       1.27878957e-11       9.16632339e-10 
       1.29383596e-09       1.27878819e-11       9.16632312e-10 
      -1.33058535e-09       1.27878819e-11       9.16632270e-10 
      -1.29397221e-09       1.27879096e-11       9.16632284e-10 
       1.33044910e-09       1.27878957e-11       9.16632339e-10 
       1.29383596e-09       1.27878819e-11       9.16632312e-10 
      -1.33058535e-09       1.27878819e-11       9.16632270e-10 
      -1.29397221e-09       1.27879096e-11       9.16632284e-10 
       2.63533276e-09       5.08249692e-11       3.64312064e-09 
       2.56280994e-09       5.08249554e-11       3.64312058e-09 
      -2.63560557e-09       5.08249970e-11       3.64312049e-09 
      -2.56308275e-09       5.08250109e-11       3.64312053e-09 
       2.63533276e-09       5.08249692e-11       3.64312064e-09 
       2.56280994e-09       5.08249554e-11       3.64312058e-09 
      -2.63560557e-09       5.08249970e-11       3.64312049e-09 
      -2.56308275e-09       5.08250109e-11       3.64312053e-09 
       3.91465088e-09       1.13621390e-10       8.14435201e-09 
       3.80692194e-09       1.13621376e-10       8.14435193e-09 
      -3.91506061e-09       1.13621432e-10       8.14435172e-09 
      -3.80733167e-09       1.13621446e-10       8.14435179e-09 
       3.91465088e-09       1.13621390e-10       8.14435201e-09 
       3.80692194e-09       1.13621376e-10       8.14435193e-09 
      -3.91506061e-09       1.13621432e-10       8.14435172e-09 
      -3.80733167e-09       1.13621446e-10       8.14435179e-09 
       5.16840365e-09       2.00687300e-10       1.43852135e-08 
       5.02617209e-09       2.00687272e-10       1.43852134e-08 
      -5.16895049e-09       2.00687370e-10       1.43852130e-08 
      -5.02671893e-09       2.00687383e-10       1.43852131e-08 
       5.16840365e-09       2.00687300e-10       1.43852135e-08 
       5.02617209e-09       2.00687272e-10       1.43852134e-08 
      -5.16895049e-09       2.00687370e-10       1.43852130e-08 
      -5.02671893e-09       2.00687383e-10       1.43852131e-08 
       6.39659092e-09       3.11532827e-10       2.23305922e-08 
       6.22056018e-09       3.11532813e-10       2.23305921e-08 
      -6.39727527e-09       3.11532924e-10       2.23305915e-08 
      -6.22124458e-09       3.11532938e-10       2.23305916e-08 
       6.39659092e-09       3.11532827e-10       2.23305922e-08 
       6.22056018e-09       3.11532813e-10       2.23305921e-08 
      -6.39727527e-09       3.11532924e-10       2.23305915e-08 
      -6.22124458e-09       3.11532938e-10       2.23305916e-08 
       7.59921281e-09       4.45668127e-10       3.19453752e-08 
       7.39008632e-09       4.45668114e-10       3.19453750e-08 
      -7.60003493e-09       4.45668238e-10       3.19453742e-08 
      -7.39090844e-09       4.45668266e-10       3.19453744e-08 
       7.59921281e-09       4.45668127e-10       3.19453752e-08 
       7.39008632e-09       4.45668114e-10       3.19453750e-08 
      -7.60003493e-09       4.45668238e-10       3.19453742e-08 
      -7.39090844e-09       4.45668266e-10       3.19453744e-08 
       8.77626916e-09       6.02603342e-10       4.31944494e-08 
       8.53475057e-09       6.02603328e-10       4.31944493e-08 
      -8.77722939e-09       6.02603467e-10       4.31944482e-08 
      -8.53571080e-09       6.02603481e-10       4.31944484e-08 
       8.77626916e-09       6.02603342e-10       4.31944494e-08 
       8.53475057e-09       6.02603328e-10       4.31944493e-08 
      -8.77722939e-09       6.02603467e-10       4.31944482e-08 
      -8.53571080e-09       6.02603481e-10       4.31944484e-08 
       9.92776017e-09       7.81848614e-10       5.60427021e-08 
       9.65455293e-09       7.81848600e-10       5.60427019e-08 
      -9.92885851e-09       7.81848752e-10       5.60427006e-08 
      -9.65565128e-09       7.81848766e-10       5.60427008e-08 
       9.92776017e-09       7.81848614e-10       5.60427021e-08 
       9.65455293e-09       7.81848600e-10       5.60427019e-08 
      -9.92885851e-09       7.81848752e-10       5.60427006e-08 
      -9.65565128e-09       7.81848766e-10       5.60427008e-08 
       1.10536854e-08       9.82914070e-10       7.04550203e-08 
       1.07494931e-08       9.82914056e-10       7.04550201e-08 
      -1.10549228e-08       9.82914236e-10       7.04550184e-08 
      -1.07507304e-08       9.82914250e-10       7.04550186e-08 
       1.10536854e-08       9.82914070e-10       7.04550203e-08 
       1.07494931e-08       9.82914056e-10       7.04550201e-08 
      -1.10549228e-08       9.82914236e-10       7.04550184e-08 
      -1.07507304e-08       9.82914250e-10       7.04550186e-08 
       1.21540453e-08       1.20530985e-09       8.63962910e-08 
       1.18195718e-08       1.20530984e-09       8.63962907e-08 
      -1.21554216e-08       1.20531005e-09       8.63962887e-08 
      -1.18209476e-08       1.20531006e-09       8.63962890e-08 
       1.21540455e-08       1.20530985e-09       8.63962910e-08 
       1.18195718e-08       1.20530984e-09       8.63962907e-08 
      -1.21554216e-08       1.20531005e-09       8.63962887e-08 
      -1.18209477e-08       1.20531006e-09       8.63962890e-08 
       1.32302098e-08       1.44855471e-09       1.03832017e-07 
       1.28661211e-08       1.44855469e-09       1.03832017e-07 
      -1.32316764e-08       1.44855491e-09       1.03832015e-07 
      -1.28675877e-08       1.44855493e-09       1.03832015e-07 
       1.32302098e-08       1.44855471e-09       1.03832017e-07 
       1.28661211e-08       1.44855469e-09       1.03832017e-07 
      -1.32316764e-08       1.44855491e-09       1.03832015e-07 
      -1.28675877e-08       1.44855493e-09       1.03832015e-07 
       1.42834999e-08       1.71220177e-09       1.22730166e-07 
       1.38904253e-08       1.71220174e-09       1.22730166e-07 
      -1.42850574e-08       1.71220196e-09       1.22730163e-07 
      -1.38919829e-08       1.71220198e-09       1.22730164e-07 
       1.42834999e-08       1.71220177e-09       1.22730166e-07 
       1.38904253e-08       1.71220174e-09       1.22730166e-07 
      -1.42850574e-08       1.71220196e-09       1.22730163e-07 
      -1.38919829e-08       1.71220198e-09       1.22730164e-07 
       1.53139152e-08       1.99581270e-09       1.43059321e-07 
       1.48924844e-08       1.99581268e-09       1.43059321e-07 
      -1.53155646e-08       1.99581290e-09       1.43059318e-07 
      -1.48941337e-08       1.99581293e-09       1.43059318e-07 
       1.53139152e-08       1.99581270e-09       1.43059321e-07 
       1.48924844e-08       1.99581268e-09       1.43059321e-07 
      -1.53155646e-08       1.99581290e-09       1.43059318e-07 
      -1.48941337e-08       1.99581293e-09       1.43059318e-07 
       1.63214562e-08       2.29894923e-09       1.64788066e-07 
       1.58722986e-08       2.29894921e-09       1.64788065e-07 
      -1.63231979e-08       2.29894943e-09       1.64788062e-07 
      -1.58740403e-08       2.29894945e-09       1.64788062e-07 
       1.63214562e-08       2.29894923e-09       1.64788066e-07 
       1.58722986e-08       2.29894921e-09       1.64788065e-07 
      -1.63231979e-08       2.29894943e-09       1.64788062e-07 
      -1.58740403e-08       2.29894945e-09       1.64788062e-07 
       1.73061223e-08       2.62117304e-09       1.87884982e-07 
       1.68298673e-08       2.62117303e-09       1.87884982e-07 
      -1.73079573e-08       2.62117328e-09       1.87884977e-07 
      -1.68317023e-08       2.62117329e-09       1.87884978e-07 
       1.73061223e-08       2.62117304e-09       1.87884982e-07 
       1.68298673e-08       2.62117303e-09       1.87884982e-07 
      -1.73079573e-08       2.62117328e-09       1.87884977e-07 
      -1.68317023e-08       2.62117329e-09       1.87884978e-07 
       1.82679141e-08       2.96204587e-09       2.12318654e-07 
       1.77651913e-08       2.96204586e-09       2.12318653e-07 
      -1.82698427e-08       2.96204609e-09       2.12318649e-07 
      -1.77671200e-08       2.96204611e-09       2.12318649e-07 
       1.82679141e-08       2.96204587e-09       2.12318654e-07 
       1.77651913e-08       2.96204586e-09       2.12318653e-07 
      -1.82698427e-08       2.96204609e-09       2.12318649e-07 
      -1.77671200e-08       2.96204611e-09       2.12318649e-07 
       1.92068315e-08       3.32112940e-09       2.38057664e-07 
       1.86782703e-08       3.32112939e-09       2.38057664e-07 
      -1.92088543e-08       3.32112965e-09       2.38057659e-07 
      -1.86802929e-08       3.32112966e-09       2.38057659e-07 
       1.92068315e-08       3.32112940e-09       2.38057664e-07 
       1.86782703e-08       3.32112939e-09       2.38057664e-07 
      -1.92088543e-08       3.32112965e-09       2.38057659e-07 
      -1.86802929e-08       3.32112966e-09       2.38057659e-07 
       2.01228738e-08       3.69798535e-09       2.65070596e-07 
       1.95691039e-08       3.69798533e-09       2.65070596e-07 
      -2.01249921e-08       3.69798560e-09       2.65070590e-07 
      -1.95712218e-08       3.69798561e-09       2.65070591e-07 
       2.01228738e-08       3.69798535e-09       2.65070596e-07 
       1.95691039e-08       3.69798533e-09       2.65070596e-07 
      -2.01249921e-08       3.69798560e-09       2.65070590e-07 
      -1.95712218e-08       3.69798561e-09       2.65070591e-07 
       2.10160422e-08       4.09217540e-09       2.93326034e-07 
       2.04376924e-08       4.09217539e-09       2.93326033e-07 
      -2.10182556e-08       4.09217567e-09       2.93326027e-07 
      -2.04399058e-08       4.09217568e-09       2.93326028e-07 
       2.10160422e-08       4.09217540e-09       2.93326034e-07 
       2.04376924e-08       4.09217539e-09       2.93326033e-07 
      -2.10182556e-08       4.09217567e-09       2.93326027e-07 
      -2.04399058e-08       4.09217568e-09       2.93326028e-07 
       2.18863359e-08       4.50326129e-09       3.22792559e-07 
       2.12840359e-08       4.50326128e-09       3.22792558e-07 
      -2.18886453e-08       4.50326156e-09       3.22792552e-07 
      -2.12863456e-08       4.50326157e-09       3.22792552e-07 
       2.18863359e-08       4.50326131e-09       3.22792559e-07 
       2.12840359e-08       4.50326129e-09       3.22792558e-07 
      -2.18886453e-08       4.50326156e-09       3.22792552e-07 
      -2.12863458e-08       4.50326157e-09       3.22792552e-07 
       2.27351173e-08       4.93081331e-09       3.53439371e-07 
       2.21094600e-08       4.93081330e-09       3.53439371e-07 
      -2.27374897e-08       4.93081358e-09       3.53439364e-07 
      -2.21118324e-08       4.93081359e-09       3.53439364e-07 
       2.27351173e-08       4.93081331e-09       3.53439371e-07 
       2.21094600e-08       4.93081330e-09       3.53439371e-07 
      -2.27374897e-08       4.93081358e-09       3.53439364e-07 
      -2.21118324e-08       4.93081359e-09       3.53439364e-07 
       2.35637159e-08       5.37443613e-09       3.85238134e-07 
       2.29152564e-08       5.37443612e-09       3.85238134e-07 
      -2.35661513e-08       5.37443640e-09       3.85238126e-07 
      -2.29176917e-08       5.37443641e-09       3.85238127e-07 
       2.35637159e-08       5.37443613e-09       3.85238134e-07 
       2.29152564e-08       5.37443612e-09       3.85238134e-07 
      -2.35661513e-08       5.37443640e-09       3.85238126e-07 
      -2.29176917e-08       5.37443641e-09       3.85238127e-07 
       2.43721310e-08       5.83374302e-09       4.18161127e-07 
       2.37014244e-08       5.83374300e-09       4.18161127e-07 
      -2.43746299e-08       5.83374327e-09       4.18161119e-07 
      -2.37039233e-08       5.83374328e-09       4.18161119e-07 
       2.43721310e-08       5.83374302e-09       4.18161127e-07 
       2.37014244e-08       5.83374300e-09       4.18161127e-07 
      -2.43746299e-08       5.83374327e-09       4.18161119e-07 
      -2.37039233e-08       5.83374328e-09       4.18161119e-07 
       2.51603622e-08       6.30834723e-09       4.52180629e-07 
       2.44679641e-08       6.30834722e-09       4.52180629e-07 
      -2.51629260e-08       6.30834751e-09       4.52180620e-07 
      -2.44705278e-08       6.30834752e-09       4.52180621e-07 
       2.51603622e-08       6.30834723e-09       4.52180629e-07 
       2.44679641e-08       6.30834722e-09       4.52180629e-07 
      -2.51629260e-08       6.30834751e-09       4.52180620e-07 
      -2.44705278e-08       6.30834752e-09       4.52180621e-07 
       2.59284096e-08       6.79786206e-09       4.87268919e-07 
       2.52148755e-08       6.79786205e-09       4.87268919e-07 
      -2.59310391e-08       6.79786233e-09       4.87268910e-07 
      -2.52175054e-08       6.79786234e-09       4.87268910e-07 
       2.59284096e-08       6.79786206e-09       4.87268919e-07 
       2.52148755e-08       6.79786205e-09       4.87268919e-07 
      -2.59310391e-08       6.79786233e-09       4.87268910e-07 
      -2.52175054e-08       6.79786234e-09       4.87268910e-07 
       2.66762736e-08       7.30190076e-09       5.23398277e-07 
       2.59421591e-08       7.30190075e-09       5.23398277e-07 
      -2.66789697e-08       7.30190103e-09       5.23398267e-07 
      -2.59448556e-08       7.30190104e-09       5.23398268e-07 
       2.66762736e-08       7.30190076e-09       5.23398277e-07 
       2.59421591e-08       7.30190075e-09       5.23398277e-07 
      -2.66789697e-08       7.30190103e-09       5.23398267e-07 
      -2.59448556e-08       7.30190104e-09       5.23398268e-07 
       2.74039542e-08       7.82007664e-09       5.60540982e-07 
       2.66498148e-08       7.82007663e-09       5.60540981e-07 
      -2.74067178e-08       7.82007689e-09       5.60540971e-07 
      -2.66525779e-08       7.82007691e-09       5.60540972e-07 
       2.74039542e-08       7.82007664e-09       5.60540982e-07 
       2.66498148e-08       7.82007663e-09       5.60540981e-07 
      -2.74067178e-08       7.82007689e-09       5.60540971e-07 
      -2.66525779e-08       7.82007691e-09       5.60540972e-07 
       2.81114518e-08       8.35200291e-09       5.98669313e-07 
       2.73378422e-08       8.35200288e-09       5.98669312e-07 
      -2.81142820e-08       8.35200317e-09       5.98669302e-07 
      -2.73406724e-08       8.35200319e-09       5.98669302e-07 
       2.81114518e-08       8.35200291e-09       5.98669313e-07 
       2.73378422e-08       8.35200288e-09       5.98669312e-07 
      -2.81142820e-08       8.35200317e-09       5.98669302e-07 
      -2.73406724e-08       8.35200319e-09       5.98669302e-07 
       2.87987656e-08       8.89729286e-09       6.37755549e-07 
       2.80062418e-08       8.89729285e-09       6.37755548e-07 
      -2.88016642e-08       8.89729312e-09       6.37755537e-07 
      -2.80091403e-08       8.89729314e-09       6.37755538e-07 
       2.87987656e-08       8.89729286e-09       6.37755549e-07 
       2.80062418e-08       8.89729285e-09       6.37755548e-07 
      -2.88016642e-08       8.89729312e-09       6.37755537e-07 
      -2.80091403e-08       8.89729314e-09       6.37755538e-07 
       2.94658955e-08       9.45555978e-09       6.77771970e-07 
       2.86550126e-08       9.45555975e-09       6.77771969e-07 
      -2.94688638e-08       9.45556003e-09       6.77771958e-07 
      -2.86579804e-08       9.45556004e-09       6.77771958e-07 
       2.94658959e-08       9.45555975e-09       6.77771970e-07 
       2.86550130e-08       9.45555978e-09       6.77771969e-07 
      -2.94688633e-08       9.45556006e-09       6.77771958e-07 
      -2.86579804e-08       9.45556003e-09       6.77771958e-07 
       3.01142000e-08       1.00264255e-08       7.18691471e-07 
       2.92854763e-08       1.00264255e-08       7.18691470e-07 
      -3.01172141e-08       1.00264258e-08       7.18691458e-07 
      -2.92884903e-08       1.00264258e-08       7.18691458e-07 
       3.01142000e-08       1.00264255e-08       7.18691471e-07 
       2.92854763e-08       1.00264255e-08       7.18691470e-07 
      -3.01172141e-08       1.00264258e-08       7.18691458e-07 
      -2.92884903e-08       1.00264258e-08       7.18691458e-07 
       3.07450110e-08       1.06095463e-08       7.60489411e-07 
       2.98989282e-08       1.06095463e-08       7.60489410e-07 
      -3.07480730e-08       1.06095466e-08       7.60489397e-07 
      -2.99019902e-08       1.06095466e-08       7.60489398e-07 
       3.07450110e-08       1.06095463e-08       7.60489411e-07 
       2.98989282e-08       1.06095463e-08       7.60489410e-07 
      -3.07480730e-08       1.06095466e-08       7.60489397e-07 
      -2.99019902e-08       1.06095466e-08       7.60489398e-07 
       3.13583306e-08       1.12045869e-08       8.03141765e-07 
       3.04953698e-08       1.12045870e-08       8.03141765e-07 
      -3.13614397e-08       1.12045873e-08       8.03141752e-07 
      -3.04984789e-08       1.12045872e-08       8.03141752e-07 
       3.13583306e-08       1.12045869e-08       8.03141765e-07 
       3.04953698e-08       1.12045870e-08       8.03141765e-07 
      -3.13614397e-08       1.12045873e-08       8.03141752e-07 
      -3.04984789e-08       1.12045872e-08       8.03141752e-07 
       3.19541571e-08       1.18112124e-08       8.46624510e-07 
       3.10747996e-08       1.18112124e-08       8.46624510e-07 
      -3.19573155e-08       1.18112127e-08       8.46624496e-07 
      -3.10779580e-08       1.18112126e-08       8.46624496e-07 
       3.19541571e-08       1.18112124e-08       8.46624510e-07 
       3.10747996e-08       1.18112124e-08       8.46624510e-07 
      -3.19573155e-08       1.18112127e-08       8.46624496e-07 
      -3.10779580e-08       1.18112126e-08       8.46624496e-07 
       3.25324909e-08       1.24290873e-08       8.90913620e-07 
       3.16372182e-08       1.24290874e-08       8.90913620e-07 
      -3.25356995e-08       1.24290876e-08       8.90913605e-07 
      -3.16404267e-08       1.24290876e-08       8.90913606e-07 
       3.25324909e-08       1.24290873e-08       8.90913620e-07 
       3.16372182e-08       1.24290874e-08       8.90913620e-07 
      -3.25356995e-08       1.24290876e-08       8.90913605e-07 
      -3.16404267e-08       1.24290876e-08       8.90913606e-07 
       3.30933330e-08       1.30578767e-08       9.35985071e-07 
       3.21826259e-08       1.30578767e-08       9.35985070e-07 
      -3.30965917e-08       1.30578770e-08       9.35985056e-07 
      -3.21858846e-08       1.30578770e-08       9.35985056e-07 
       3.30933330e-08       1.30578767e-08       9.35985071e-07 
       3.21826259e-08       1.30578767e-08       9.35985070e-07 
      -3.30965917e-08       1.30578770e-08       9.35985056e-07 
      -3.21858846e-08       1.30578770e-08       9.35985056e-07 
       3.36366819e-08       1.36972453e-08       9.81814838e-07 
       3.27110228e-08       1.36972453e-08       9.81814837e-07 
      -3.36399921e-08       1.36972456e-08       9.81814822e-07 
      -3.27143326e-08       1.36972455e-08       9.81814823e-07 
       3.36366819e-08       1.36972453e-08       9.81814838e-07 
       3.27110228e-08       1.36972453e-08       9.81814837e-07 
      -3.36399921e-08       1.36972456e-08       9.81814822e-07 
      -3.27143326e-08       1.36972455e-08       9.81814823e-07 
       3.41625395e-08       1.43468580e-08       1.02837890e-06 
       3.32224088e-08       1.43468580e-08       1.02837890e-06 
      -3.41659003e-08       1.43468582e-08       1.02837888e-06 
      -3.32257697e-08       1.43468582e-08       1.02837888e-06 
       3.41625395e-08       1.43468580e-08       1.02837890e-06 
       3.32224088e-08       1.43468580e-08       1.02837890e-06 