# vtk DataFile Version 2.0
./output/onsasExample_nonLinearCantileverBlade_staitc3D_no_pitch numElements=10/onsasExample_nonLinearCantileverBlade_staitc3D_no_pitch numElements=10_0023.vtk
ASCII
DATASET UNSTRUCTURED_GRID

POINTS 800 float
      -4.502631e-24      -7.180703e-02      -7.180703e-02 
      -7.017982e-24       7.180703e-02      -7.180703e-02 
       4.502631e-24       7.180703e-02       7.180703e-02 
       7.017982e-24      -7.180703e-02       7.180703e-02 
       1.000000e-01      -7.180703e-02      -7.180703e-02 
       1.000000e-01       7.180703e-02      -7.180703e-02 
       1.000000e-01       7.180703e-02       7.180703e-02 
       1.000000e-01      -7.180703e-02       7.180703e-02 
       1.000000e-01      -7.180703e-02      -7.180703e-02 
       1.000000e-01       7.180703e-02      -7.180703e-02 
       1.000000e-01       7.180703e-02       7.180703e-02 
       1.000000e-01      -7.180703e-02       7.180703e-02 
       2.000000e-01      -7.180703e-02      -7.180703e-02 
       2.000000e-01       7.180703e-02      -7.180703e-02 
       2.000000e-01       7.180703e-02       7.180704e-02 
       2.000000e-01      -7.180703e-02       7.180704e-02 
       2.000000e-01      -7.180703e-02      -7.180703e-02 
       2.000000e-01       7.180703e-02      -7.180703e-02 
       2.000000e-01       7.180703e-02       7.180704e-02 
       2.000000e-01      -7.180703e-02       7.180704e-02 
       3.000000e-01      -7.180703e-02      -7.180702e-02 
       3.000000e-01       7.180704e-02      -7.180702e-02 
       3.000000e-01       7.180704e-02       7.180705e-02 
       3.000000e-01      -7.180703e-02       7.180705e-02 
       3.000000e-01      -7.180703e-02      -7.180702e-02 
       3.000000e-01       7.180704e-02      -7.180702e-02 
       3.000000e-01       7.180704e-02       7.180705e-02 
       3.000000e-01      -7.180703e-02       7.180705e-02 
       4.000000e-01      -7.180703e-02      -7.180701e-02 
       4.000000e-01       7.180704e-02      -7.180701e-02 
       4.000000e-01       7.180704e-02       7.180706e-02 
       4.000000e-01      -7.180703e-02       7.180706e-02 
       4.000000e-01      -7.180703e-02      -7.180701e-02 
       4.000000e-01       7.180704e-02      -7.180701e-02 
       4.000000e-01       7.180704e-02       7.180706e-02 
       4.000000e-01      -7.180703e-02       7.180706e-02 
       5.000000e-01      -7.180702e-02      -7.180700e-02 
       5.000000e-01       7.180704e-02      -7.180700e-02 
       5.000000e-01       7.180704e-02       7.180707e-02 
       5.000000e-01      -7.180702e-02       7.180707e-02 
       5.000000e-01      -7.180702e-02      -7.180700e-02 
       5.000000e-01       7.180704e-02      -7.180700e-02 
       5.000000e-01       7.180704e-02       7.180707e-02 
       5.000000e-01      -7.180702e-02       7.180707e-02 
       6.000000e-01      -7.180702e-02      -7.180698e-02 
       6.000000e-01       7.180705e-02      -7.180698e-02 
       6.000000e-01       7.180705e-02       7.180709e-02 
       6.000000e-01      -7.180702e-02       7.180709e-02 
       6.000000e-01      -7.180702e-02      -7.180698e-02 
       6.000000e-01       7.180705e-02      -7.180698e-02 
       6.000000e-01       7.180705e-02       7.180709e-02 
       6.000000e-01      -7.180702e-02       7.180709e-02 
       7.000000e-01      -7.180702e-02      -7.180696e-02 
       7.000000e-01       7.180705e-02      -7.180696e-02 
       7.000000e-01       7.180705e-02       7.180711e-02 
       7.000000e-01      -7.180702e-02       7.180711e-02 
       7.000000e-01      -7.180702e-02      -7.180696e-02 
       7.000000e-01       7.180705e-02      -7.180696e-02 
       7.000000e-01       7.180705e-02       7.180711e-02 
       7.000000e-01      -7.180702e-02       7.180711e-02 
       8.000000e-01      -7.180701e-02      -7.180694e-02 
       8.000000e-01       7.180705e-02      -7.180694e-02 
       8.000000e-01       7.180705e-02       7.180713e-02 
       8.000000e-01      -7.180701e-02       7.180713e-02 
       8.000000e-01      -7.180701e-02      -7.180694e-02 
       8.000000e-01       7.180705e-02      -7.180694e-02 
       8.000000e-01       7.180705e-02       7.180713e-02 
       8.000000e-01      -7.180701e-02       7.180713e-02 
       9.000000e-01      -7.180701e-02      -7.180691e-02 
       9.000000e-01       7.180706e-02      -7.180691e-02 
       9.000000e-01       7.180706e-02       7.180715e-02 
       9.000000e-01      -7.180701e-02       7.180715e-02 
       9.000000e-01      -7.180701e-02      -7.180691e-02 
       9.000000e-01       7.180706e-02      -7.180691e-02 
       9.000000e-01       7.180706e-02       7.180715e-02 
       9.000000e-01      -7.180701e-02       7.180715e-02 
       1.000000e+00      -7.180700e-02      -7.180689e-02 
       1.000000e+00       7.180707e-02      -7.180689e-02 
       1.000000e+00       7.180707e-02       7.180718e-02 
       1.000000e+00      -7.180700e-02       7.180718e-02 
       1.000000e+00      -7.180700e-02      -7.180689e-02 
       1.000000e+00       7.180707e-02      -7.180689e-02 
       1.000000e+00       7.180707e-02       7.180718e-02 
       1.000000e+00      -7.180700e-02       7.180718e-02 
       1.100000e+00      -7.180699e-02      -7.180686e-02 
       1.100000e+00       7.180707e-02      -7.180686e-02 
       1.100000e+00       7.180707e-02       7.180721e-02 
       1.100000e+00      -7.180699e-02       7.180721e-02 
       1.100000e+00      -7.180699e-02      -7.180686e-02 
       1.100000e+00       7.180707e-02      -7.180686e-02 
       1.100000e+00       7.180707e-02       7.180721e-02 
       1.100000e+00      -7.180699e-02       7.180721e-02 
       1.200000e+00      -7.180699e-02      -7.180683e-02 
       1.200000e+00       7.180708e-02      -7.180683e-02 
       1.200000e+00       7.180708e-02       7.180724e-02 
       1.200000e+00      -7.180699e-02       7.180724e-02 
       1.200000e+00      -7.180699e-02      -7.180683e-02 
       1.200000e+00       7.180708e-02      -7.180683e-02 
       1.200000e+00       7.180708e-02       7.180724e-02 
       1.200000e+00      -7.180699e-02       7.180724e-02 
       1.300000e+00      -7.180698e-02      -7.180679e-02 
       1.300000e+00       7.180709e-02      -7.180679e-02 
       1.300000e+00       7.180709e-02       7.180728e-02 
       1.300000e+00      -7.180698e-02       7.180728e-02 
       1.300000e+00      -7.180698e-02      -7.180679e-02 
       1.300000e+00       7.180709e-02      -7.180679e-02 
       1.300000e+00       7.180709e-02       7.180728e-02 
       1.300000e+00      -7.180698e-02       7.180728e-02 
       1.400000e+00      -7.180697e-02      -7.180675e-02 
       1.400000e+00       7.180710e-02      -7.180675e-02 
       1.400000e+00       7.180710e-02       7.180731e-02 
       1.400000e+00      -7.180697e-02       7.180731e-02 
       1.400000e+00      -7.180697e-02      -7.180675e-02 
       1.400000e+00       7.180710e-02      -7.180675e-02 
       1.400000e+00       7.180710e-02       7.180731e-02 
       1.400000e+00      -7.180697e-02       7.180731e-02 
       1.500000e+00      -7.180696e-02      -7.180672e-02 
       1.500000e+00       7.180711e-02      -7.180672e-02 
       1.500000e+00       7.180711e-02       7.180735e-02 
       1.500000e+00      -7.180696e-02       7.180735e-02 
       1.500000e+00      -7.180696e-02      -7.180672e-02 
       1.500000e+00       7.180711e-02      -7.180672e-02 
       1.500000e+00       7.180711e-02       7.180735e-02 
       1.500000e+00      -7.180696e-02       7.180735e-02 
       1.600000e+00      -7.180695e-02      -7.180667e-02 
       1.600000e+00       7.180712e-02      -7.180667e-02 
       1.600000e+00       7.180712e-02       7.180739e-02 
       1.600000e+00      -7.180695e-02       7.180739e-02 
       1.600000e+00      -7.180695e-02      -7.180667e-02 
       1.600000e+00       7.180712e-02      -7.180667e-02 
       1.600000e+00       7.180712e-02       7.180739e-02 
       1.600000e+00      -7.180695e-02       7.180739e-02 
       1.700000e+00      -7.180694e-02      -7.180663e-02 
       1.700000e+00       7.180713e-02      -7.180663e-02 
       1.700000e+00       7.180713e-02       7.180744e-02 
       1.700000e+00      -7.180694e-02       7.180744e-02 
       1.700000e+00      -7.180694e-02      -7.180663e-02 
       1.700000e+00       7.180713e-02      -7.180663e-02 
       1.700000e+00       7.180713e-02       7.180744e-02 
       1.700000e+00      -7.180694e-02       7.180744e-02 
       1.800000e+00      -7.180693e-02      -7.180658e-02 
       1.800000e+00       7.180714e-02      -7.180658e-02 
       1.800000e+00       7.180714e-02       7.180748e-02 
       1.800000e+00      -7.180693e-02       7.180748e-02 
       1.800000e+00      -7.180693e-02      -7.180658e-02 
       1.800000e+00       7.180714e-02      -7.180658e-02 
       1.800000e+00       7.180714e-02       7.180748e-02 
       1.800000e+00      -7.180693e-02       7.180748e-02 
       1.900000e+00      -7.180692e-02      -7.180654e-02 
       1.900000e+00       7.180715e-02      -7.180654e-02 
       1.900000e+00       7.180715e-02       7.180753e-02 
       1.900000e+00      -7.180692e-02       7.180753e-02 
       1.900000e+00      -7.180692e-02      -7.180654e-02 
       1.900000e+00       7.180715e-02      -7.180654e-02 
       1.900000e+00       7.180715e-02       7.180753e-02 
       1.900000e+00      -7.180692e-02       7.180753e-02 
       2.000000e+00      -7.180691e-02      -7.180649e-02 
       2.000000e+00       7.180716e-02      -7.180649e-02 
       2.000000e+00       7.180716e-02       7.180758e-02 
       2.000000e+00      -7.180691e-02       7.180758e-02 
       2.000000e+00      -7.180691e-02      -7.180649e-02 
       2.000000e+00       7.180716e-02      -7.180649e-02 
       2.000000e+00       7.180716e-02       7.180758e-02 
       2.000000e+00      -7.180691e-02       7.180758e-02 
       2.100000e+00      -7.180690e-02      -7.180644e-02 
[...]
POINT_DATA       800 
VECTORS Displacements float
      -4.50263077e-24       0.00000000e+00       0.00000000e+00 
      -7.01798151e-24       1.38777878e-17       0.00000000e+00 
       4.50263077e-24       0.00000000e+00       0.00000000e+00 
       7.01798151e-24      -1.38777878e-17       0.00000000e+00 
       2.72759222e-09       3.55323729e-10       1.55027069e-09 
       1.71025889e-09       3.55323729e-10       1.55026955e-09 
      -2.72833865e-09       3.55324811e-10       1.55026950e-09 
      -1.71100532e-09       3.55324811e-10       1.55027063e-09 
       2.72759222e-09       3.55323729e-10       1.55027069e-09 
       1.71025889e-09       3.55323729e-10       1.55026955e-09 
      -2.72833865e-09       3.55324811e-10       1.55026950e-09 
      -1.71100532e-09       3.55324811e-10       1.55027063e-09 
       5.40276729e-09       1.41222185e-09       6.16149140e-09 
       3.38764827e-09       1.41222185e-09       6.16148911e-09 
      -5.40426109e-09       1.41222402e-09       6.16148885e-09 
      -3.38914208e-09       1.41222400e-09       6.16149114e-09 
       5.40276729e-09       1.41222185e-09       6.16149140e-09 
       3.38764827e-09       1.41222185e-09       6.16148911e-09 
      -5.40426109e-09       1.41222402e-09       6.16148885e-09 
      -3.38914208e-09       1.41222400e-09       6.16149114e-09 
       8.02552530e-09       3.15708319e-09       1.37742768e-08 
       5.03216813e-09       3.15708316e-09       1.37742733e-08 
      -8.02776734e-09       3.15708637e-09       1.37742727e-08 
      -5.03441017e-09       3.15708640e-09       1.37742762e-08 
       8.02552530e-09       3.15708319e-09       1.37742768e-08 
       5.03216813e-09       3.15708316e-09       1.37742733e-08 
      -8.02776734e-09       3.15708637e-09       1.37742727e-08 
      -5.03441017e-09       3.15708640e-09       1.37742762e-08 
       1.05958661e-08       5.57629651e-09       2.43292415e-08 
       6.64381850e-09       5.57629648e-09       2.43292368e-08 
      -1.05988575e-08       5.57630071e-09       2.43292358e-08 
      -6.64680982e-09       5.57630074e-09       2.43292405e-08 
       1.05958661e-08       5.57629651e-09       2.43292415e-08 
       6.64381850e-09       5.57629648e-09       2.43292368e-08 
      -1.05988575e-08       5.57630071e-09       2.43292358e-08 
      -6.64680982e-09       5.57630074e-09       2.43292405e-08 
       1.31137898e-08       8.65625063e-09       3.77670002e-08 
       8.22259938e-09       8.65625056e-09       3.77669943e-08 
      -1.31175312e-08       8.65625578e-09       3.77669927e-08 
      -8.22634078e-09       8.65625584e-09       3.77669986e-08 
       1.31137898e-08       8.65625063e-09       3.77670002e-08 
       8.22259938e-09       8.65625056e-09       3.77669943e-08 
      -1.31175312e-08       8.65625578e-09       3.77669927e-08 
      -8.22634078e-09       8.65625584e-09       3.77669986e-08 
       1.55792965e-08       1.23833343e-08       5.40281675e-08 
       9.76851078e-09       1.23833342e-08       5.40281603e-08 
      -1.55837888e-08       1.23833404e-08       5.40281581e-08 
      -9.77300307e-09       1.23833405e-08       5.40281653e-08 
       1.55792965e-08       1.23833343e-08       5.40281675e-08 
       9.76851078e-09       1.23833342e-08       5.40281603e-08 
      -1.55837888e-08       1.23833404e-08       5.40281581e-08 
      -9.77300307e-09       1.23833405e-08       5.40281653e-08 
       1.79923860e-08       1.67439363e-08       7.30533581e-08 
       1.12815526e-08       1.67439362e-08       7.30533496e-08 
      -1.79976302e-08       1.67439433e-08       7.30533467e-08 
      -1.12867967e-08       1.67439435e-08       7.30533552e-08 
       1.79923860e-08       1.67439363e-08       7.30533581e-08 
       1.12815526e-08       1.67439362e-08       7.30533496e-08 
      -1.79976302e-08       1.67439433e-08       7.30533467e-08 
      -1.12867967e-08       1.67439435e-08       7.30533552e-08 
       2.03530585e-08       2.17244455e-08       9.47831867e-08 
       1.27617251e-08       2.17244453e-08       9.47831768e-08 
      -2.03590553e-08       2.17244534e-08       9.47831730e-08 
      -1.27677220e-08       2.17244535e-08       9.47831829e-08 
       2.03530585e-08       2.17244455e-08       9.47831867e-08 
       1.27617251e-08       2.17244453e-08       9.47831768e-08 
      -2.03590553e-08       2.17244534e-08       9.47831730e-08 
      -1.27677220e-08       2.17244535e-08       9.47831829e-08 
       2.26613140e-08       2.73112506e-08       1.19158268e-07 
       1.42090282e-08       2.73112503e-08       1.19158257e-07 
      -2.26680642e-08       2.73112593e-08       1.19158252e-07 
      -1.42157783e-08       2.73112595e-08       1.19158263e-07 
       2.26613140e-08       2.73112506e-08       1.19158268e-07 
       1.42090282e-08       2.73112503e-08       1.19158257e-07 
      -2.26680642e-08       2.73112593e-08       1.19158252e-07 
      -1.42157783e-08       2.73112595e-08       1.19158263e-07 
       2.49171521e-08       3.34907404e-08       1.46119216e-07 
       1.56234619e-08       3.34907401e-08       1.46119204e-07 
      -2.49246568e-08       3.34907499e-08       1.46119198e-07 
      -1.56309661e-08       3.34907502e-08       1.46119210e-07 
       2.49171523e-08       3.34907404e-08       1.46119216e-07 
       1.56234616e-08       3.34907401e-08       1.46119204e-07 
      -2.49246568e-08       3.34907500e-08       1.46119198e-07 
      -1.56309661e-08       3.34907503e-08       1.46119210e-07 
       2.71234659e-08       4.02495427e-08       1.75607688e-07 
       1.70068892e-08       4.02495424e-08       1.75607675e-07 
      -2.71314582e-08       4.02495526e-08       1.75607668e-07 
      -1.70148817e-08       4.02495530e-08       1.75607681e-07 
       2.71234659e-08       4.02495427e-08       1.75607688e-07 
       1.70068892e-08       4.02495424e-08       1.75607675e-07 
      -2.71314582e-08       4.02495526e-08       1.75607668e-07 
      -1.70148817e-08       4.02495530e-08       1.75607681e-07 
       2.92828797e-08       4.75752401e-08       2.07569507e-07 
       1.83609070e-08       4.75752397e-08       2.07569493e-07 
      -2.92913616e-08       4.75752503e-08       2.07569485e-07 
      -1.83693889e-08       4.75752507e-08       2.07569499e-07 
       2.92828797e-08       4.75752401e-08       2.07569507e-07 
       1.83609070e-08       4.75752397e-08       2.07569493e-07 
      -2.92913616e-08       4.75752503e-08       2.07569485e-07 
      -1.83693889e-08       4.75752507e-08       2.07569499e-07 
       3.13953930e-08       5.54556541e-08       2.41951540e-07 
       1.96855143e-08       5.54556536e-08       2.41951525e-07 
      -3.14043669e-08       5.54556646e-08       2.41951516e-07 
      -1.96944880e-08       5.54556651e-08       2.41951531e-07 
       3.13953930e-08       5.54556541e-08       2.41951540e-07 
       1.96855143e-08       5.54556536e-08       2.41951525e-07 
      -3.14043669e-08       5.54556646e-08       2.41951516e-07 
      -1.96944880e-08       5.54556651e-08       2.41951531e-07 
       3.34610064e-08       6.38786062e-08       2.78700652e-07 
       2.09807116e-08       6.38786056e-08       2.78700636e-07 
      -3.34704737e-08       6.38786170e-08       2.78700626e-07 
      -2.09901789e-08       6.38786175e-08       2.78700642e-07 
       3.34610064e-08       6.38786062e-08       2.78700652e-07 
       2.09807116e-08       6.38786056e-08       2.78700636e-07 
      -3.34704737e-08       6.38786170e-08       2.78700626e-07 
      -2.09901789e-08       6.38786175e-08       2.78700642e-07 
       3.54797196e-08       7.28319180e-08       3.17763709e-07 
       2.22464986e-08       7.28319174e-08       3.17763692e-07 
      -3.54896830e-08       7.28319291e-08       3.17763680e-07 
      -2.22564620e-08       7.28319297e-08       3.17763697e-07 
       3.54797196e-08       7.28319180e-08       3.17763709e-07 
       2.22464986e-08       7.28319174e-08       3.17763692e-07 
      -3.54896830e-08       7.28319291e-08       3.17763680e-07 
      -2.22564620e-08       7.28319297e-08       3.17763697e-07 
       3.74515325e-08       8.23034110e-08       3.59087576e-07 
       2.34828756e-08       8.23034103e-08       3.59087558e-07 
      -3.74619940e-08       8.23034224e-08       3.59087545e-07 
      -2.34933371e-08       8.23034231e-08       3.59087563e-07 
       3.74515325e-08       8.23034110e-08       3.59087576e-07 
       2.34828756e-08       8.23034103e-08       3.59087558e-07 
      -3.74619940e-08       8.23034224e-08       3.59087545e-07 
      -2.34933371e-08       8.23034231e-08       3.59087563e-07 
       3.93764459e-08       9.22809068e-08       4.02619120e-07 
       2.46898424e-08       9.22809060e-08       4.02619101e-07 
      -3.93874064e-08       9.22809184e-08       4.02619086e-07 
      -2.47008032e-08       9.22809192e-08       4.02619105e-07 
       3.93764459e-08       9.22809068e-08       4.02619120e-07 
       2.46898424e-08       9.22809060e-08       4.02619101e-07 
      -3.93874064e-08       9.22809184e-08       4.02619086e-07 
      -2.47008032e-08       9.22809192e-08       4.02619105e-07 
       4.12544587e-08       1.02752227e-07       4.48305205e-07 
       2.58673996e-08       1.02752226e-07       4.48305185e-07 
      -4.12659207e-08       1.02752239e-07       4.48305170e-07 
      -2.58788613e-08       1.02752240e-07       4.48305189e-07 
       4.12544587e-08       1.02752227e-07       4.48305205e-07 
       2.58673996e-08       1.02752226e-07       4.48305185e-07 
      -4.12659207e-08       1.02752239e-07       4.48305170e-07 
      -2.58788613e-08       1.02752240e-07       4.48305189e-07 
       4.30855720e-08       1.13705193e-07       4.96092699e-07 
       2.70155462e-08       1.13705192e-07       4.96092678e-07 
      -4.30975371e-08       1.13705205e-07       4.96092661e-07 
      -2.70275113e-08       1.13705206e-07       4.96092681e-07 
       4.30855720e-08       1.13705193e-07       4.96092699e-07 
       2.70155462e-08       1.13705192e-07       4.96092678e-07 
      -4.30975371e-08       1.13705205e-07       4.96092661e-07 
      -2.70275113e-08       1.13705206e-07       4.96092681e-07 
       4.48697852e-08       1.25127626e-07       5.45928466e-07 
       2.81342829e-08       1.25127625e-07       5.45928444e-07 
      -4.48822548e-08       1.25127639e-07       5.45928425e-07 
      -2.81467529e-08       1.25127640e-07       5.45928447e-07 
       4.48697848e-08       1.25127626e-07       5.45928466e-07 
       2.81342829e-08       1.25127625e-07       5.45928444e-07 
      -4.48822550e-08       1.25127639e-07       5.45928425e-07 
      -2.81467532e-08       1.25127640e-07       5.45928447e-07 
       4.66099506e-08       1.37007588e-07       5.97760414e-07 
       2.92254336e-08       1.37007587e-07       5.97760391e-07 
      -4.66227394e-08       1.37007600e-07       5.97760371e-07 
      -2.92382225e-08       1.37007601e-07       5.97760394e-07 
       4.66099506e-08       1.37007588e-07       5.97760414e-07 
       2.92254336e-08       1.37007587e-07       5.97760391e-07 
      -4.66227394e-08       1.37007600e-07       5.97760371e-07 
      -2.92382225e-08       1.37007601e-07       5.97760394e-07 
       4.83087339e-08       1.49334092e-07       6.51540618e-07 
       3.02906340e-08       1.49334091e-07       6.51540594e-07 
      -4.83218434e-08       1.49334105e-07       6.51540573e-07 
      -3.03037440e-08       1.49334106e-07       6.51540596e-07 
       4.83087339e-08       1.49334092e-07       6.51540618e-07 
       3.02906340e-08       1.49334091e-07       6.51540594e-07 
      -4.83218434e-08       1.49334105e-07       6.51540573e-07 
      -3.03037440e-08       1.49334106e-07       6.51540596e-07 
       4.99661343e-08       1.62096394e-07       7.07222195e-07 
       3.13298840e-08       1.62096393e-07       7.07222171e-07 
      -4.99795672e-08       1.62096407e-07       7.07222148e-07 
      -3.13433168e-08       1.62096408e-07       7.07222172e-07 
       4.99661343e-08       1.62096394e-07       7.07222195e-07 
       3.13298840e-08       1.62096393e-07       7.07222171e-07 
      -4.99795672e-08       1.62096407e-07       7.07222148e-07 
      -3.13433168e-08       1.62096408e-07       7.07222172e-07 
       5.15821519e-08       1.75283749e-07       7.64758261e-07 
       3.23431837e-08       1.75283747e-07       7.64758237e-07 
      -5.15959102e-08       1.75283761e-07       7.64758212e-07 
      -3.23569420e-08       1.75283762e-07       7.64758237e-07 
       5.15821519e-08       1.75283749e-07       7.64758261e-07 
       3.23431837e-08       1.75283747e-07       7.64758237e-07 
      -5.15959102e-08       1.75283761e-07       7.64758212e-07 
      -3.23569420e-08       1.75283762e-07       7.64758237e-07 
       5.31567865e-08       1.88885409e-07       8.24101935e-07 
       3.33305326e-08       1.88885407e-07       8.24101909e-07 
      -5.31708735e-08       1.88885421e-07       8.24101883e-07 
      -3.33446191e-08       1.88885422e-07       8.24101909e-07 
       5.31567865e-08       1.88885409e-07       8.24101935e-07 
       3.33305326e-08       1.88885407e-07       8.24101909e-07 
      -5.31708735e-08       1.88885421e-07       8.24101883e-07 
      -3.33446191e-08       1.88885422e-07       8.24101909e-07 
       5.46900387e-08       2.02890630e-07       8.85206331e-07 
       3.42919311e-08       2.02890628e-07       8.85206305e-07 
      -5.47044556e-08       2.02890641e-07       8.85206278e-07 
      -3.43063484e-08       2.02890643e-07       8.85206304e-07 
       5.46900387e-08       2.02890630e-07       8.85206331e-07 
       3.42919311e-08       2.02890628e-07       8.85206305e-07 
      -5.47044556e-08       2.02890641e-07       8.85206278e-07 
      -3.43063484e-08       2.02890643e-07       8.85206304e-07 
       5.61819080e-08       2.17288665e-07       9.48024568e-07 
       3.52273792e-08       2.17288664e-07       9.48024542e-07 
      -5.61966580e-08       2.17288677e-07       9.48024513e-07 
      -3.52421292e-08       2.17288678e-07       9.48024539e-07 
       5.61819080e-08       2.17288665e-07       9.48024568e-07 
       3.52273792e-08       2.17288664e-07       9.48024542e-07 
      -5.61966580e-08       2.17288677e-07       9.48024513e-07 
      -3.52421292e-08       2.17288678e-07       9.48024539e-07 
       5.76323953e-08       2.32068770e-07       1.01250976e-06 
       3.61368775e-08       2.32068768e-07       1.01250974e-06 
      -5.76474788e-08       2.32068781e-07       1.01250970e-06 
      -3.61519614e-08       2.32068783e-07       1.01250973e-06 
       5.76323953e-08       2.32068770e-07       1.01250976e-06 
       3.61368775e-08       2.32068768e-07       1.01250974e-06 
      -5.76474788e-08       2.32068781e-07       1.01250970e-06 
      -3.61519614e-08       2.32068783e-07       1.01250973e-06 
       5.90414992e-08       2.47220198e-07       1.07861503e-06 
       3.70204254e-08       2.47220196e-07       1.07861500e-06 
      -5.90569198e-08       2.47220209e-07       1.07861497e-06 
      -3.70358459e-08       2.47220211e-07       1.07861500e-06 
       5.90414992e-08       2.47220198e-07       1.07861503e-06 
       3.70204254e-08       2.47220196e-07       1.07861500e-06 
      -5.90569198e-08       2.47220209e-07       1.07861497e-06 
      -3.70358459e-08       2.47220211e-07       1.07861500e-06 
       6.04092212e-08       2.62732204e-07       1.14629349e-06 
       3.78780225e-08       2.62732202e-07       1.14629346e-06 
      -6.04249801e-08       2.62732215e-07       1.14629343e-06 
      -3.78937819e-08       2.62732217e-07       1.14629346e-06 
       6.04092212e-08       2.62732204e-07       1.14629349e-06 
       3.78780229e-08       2.62732202e-07       1.14629346e-06 
      -6.04249801e-08       2.62732215e-07       1.14629343e-06 
      -3.78937819e-08       2.62732217e-07       1.14629346e-06 
       6.17383820e-08       2.78594280e-07       1.21549930e-06 
       3.87114629e-08       2.78594278e-07       1.21549927e-06 
      -6.17543554e-08       2.78594292e-07       1.21549923e-06 
      -3.87274368e-08       2.78594293e-07       1.21549926e-06 
       6.17383820e-08       2.78594280e-07       1.21549930e-06 
       3.87114629e-08       2.78594278e-07       1.21549927e-06 
      -6.17543554e-08       2.78594292e-07       1.21549923e-06 
      -3.87274368e-08       2.78594293e-07       1.21549926e-06 
       6.30316777e-08       2.94796876e-07       1.28619078e-06 
       3.95224129e-08       2.94796874e-07       1.28619075e-06 
      -6.30478683e-08       2.94796887e-07       1.28619071e-06 
      -3.95386031e-08       2.94796889e-07       1.28619074e-06 
       6.30316777e-08       2.94796876e-07       1.28619078e-06 
       3.95224129e-08       2.94796874e-07       1.28619075e-06 
      -6.30478683e-08       2.94796887e-07       1.28619071e-06 
      -3.95386031e-08       2.94796889e-07       1.28619074e-06 
       6.42891087e-08       3.11330678e-07       1.35832731e-06 
       4.03108724e-08       3.11330676e-07       1.35832728e-06 
      -6.43055174e-08       3.11330689e-07       1.35832724e-06 
      -4.03272811e-08       3.11330691e-07       1.35832727e-06 
       6.42891087e-08       3.11330678e-07       1.35832731e-06 
       4.03108724e-08       3.11330676e-07       1.35832728e-06 
      -6.43055174e-08       3.11330689e-07       1.35832724e-06 
      -4.03272811e-08       3.11330691e-07       1.35832727e-06 
       6.55106742e-08       3.28186373e-07       1.43186825e-06 
       4.10768415e-08       3.28186371e-07       1.43186822e-06 
      -6.55273040e-08       3.28186384e-07       1.43186818e-06 
      -4.10934713e-08       3.28186386e-07       1.43186821e-06 
       6.55106742e-08       3.28186373e-07       1.43186825e-06 
       4.10768415e-08       3.28186371e-07       1.43186822e-06 
      -6.55273040e-08       3.28186384e-07       1.43186818e-06 
      -4.10934713e-08       3.28186386e-07       1.43186821e-06 
       6.66963746e-08       3.45354649e-07       1.50677296e-06 
       4.18203197e-08       3.45354646e-07       1.50677293e-06 
      -6.67132278e-08       3.45354659e-07       1.50677289e-06 
      -4.18371733e-08       3.45354661e-07       1.50677292e-06 
       6.66963746e-08       3.45354649e-07       1.50677296e-06 
       4.18203197e-08       3.45354646e-07       1.50677293e-06 
      -6.67132278e-08       3.45354659e-07       1.50677289e-06 
      -4.18371733e-08       3.45354661e-07       1.50677292e-06 
       6.78462095e-08       3.62826191e-07       1.58300083e-06 
       4.25413078e-08       3.62826189e-07       1.58300080e-06 
      -6.78632888e-08       3.62826201e-07       1.58300075e-06 
      -4.25583870e-08       3.62826204e-07       1.58300079e-06 
       6.78462095e-08       3.62826191e-07       1.58300083e-06 
       4.25413078e-08       3.62826189e-07       1.58300080e-06 
      -6.78632888e-08       3.62826201e-07       1.58300075e-06 
      -4.25583870e-08       3.62826204e-07       1.58300079e-06 
       6.89601798e-08       3.80591689e-07       1.66051121e-06 
       4.32398051e-08       3.80591686e-07       1.66051118e-06 
      -6.89774868e-08       3.80591698e-07       1.66051113e-06 
      -4.32571121e-08       3.80591701e-07       1.66051116e-06 
       6.89601798e-08       3.80591689e-07       1.66051121e-06 
       4.32398051e-08       3.80591686e-07       1.66051118e-06 
      -6.89774868e-08       3.80591698e-07       1.66051113e-06 
      -4.32571121e-08       3.80591701e-07       1.66051116e-06 
       7.00382854e-08       3.98641827e-07       1.73926347e-06 
       4.39158128e-08       3.98641825e-07       1.73926344e-06 
      -7.00558207e-08       3.98641837e-07       1.73926339e-06 
      -4.39333485e-08       3.98641839e-07       1.73926343e-06 
       7.00382854e-08       3.98641827e-07       1.73926347e-06 
       4.39158128e-08       3.98641825e-07       1.73926344e-06 