# vtk DataFile Version 2.0
./output/onsasExample_nonLinearCantileverBlade_staitc3D_no_pitch numElements=10/onsasExample_nonLinearCantileverBlade_staitc3D_no_pitch numElements=10_0008.vtk
ASCII
DATASET UNSTRUCTURED_GRID

POINTS 800 float
      -1.104924e-24      -7.180703e-02      -7.180703e-02 
      -5.944303e-25       7.180703e-02      -7.180703e-02 
       1.104924e-24       7.180703e-02       7.180703e-02 
       5.944303e-25      -7.180703e-02       7.180703e-02 
       1.000000e-01      -7.180703e-02      -7.180703e-02 
       1.000000e-01       7.180703e-02      -7.180703e-02 
       1.000000e-01       7.180703e-02       7.180703e-02 
       1.000000e-01      -7.180703e-02       7.180703e-02 
       1.000000e-01      -7.180703e-02      -7.180703e-02 
       1.000000e-01       7.180703e-02      -7.180703e-02 
       1.000000e-01       7.180703e-02       7.180703e-02 
       1.000000e-01      -7.180703e-02       7.180703e-02 
       2.000000e-01      -7.180703e-02      -7.180703e-02 
       2.000000e-01       7.180703e-02      -7.180703e-02 
       2.000000e-01       7.180703e-02       7.180704e-02 
       2.000000e-01      -7.180703e-02       7.180704e-02 
       2.000000e-01      -7.180703e-02      -7.180703e-02 
       2.000000e-01       7.180703e-02      -7.180703e-02 
       2.000000e-01       7.180703e-02       7.180704e-02 
       2.000000e-01      -7.180703e-02       7.180704e-02 
       3.000000e-01      -7.180703e-02      -7.180703e-02 
       3.000000e-01       7.180703e-02      -7.180703e-02 
       3.000000e-01       7.180703e-02       7.180704e-02 
       3.000000e-01      -7.180703e-02       7.180704e-02 
       3.000000e-01      -7.180703e-02      -7.180703e-02 
       3.000000e-01       7.180703e-02      -7.180703e-02 
       3.000000e-01       7.180703e-02       7.180704e-02 
       3.000000e-01      -7.180703e-02       7.180704e-02 
       4.000000e-01      -7.180703e-02      -7.180702e-02 
       4.000000e-01       7.180703e-02      -7.180702e-02 
       4.000000e-01       7.180703e-02       7.180704e-02 
       4.000000e-01      -7.180703e-02       7.180704e-02 
       4.000000e-01      -7.180703e-02      -7.180702e-02 
       4.000000e-01       7.180703e-02      -7.180702e-02 
       4.000000e-01       7.180703e-02       7.180704e-02 
       4.000000e-01      -7.180703e-02       7.180704e-02 
       5.000000e-01      -7.180703e-02      -7.180702e-02 
       5.000000e-01       7.180703e-02      -7.180702e-02 
       5.000000e-01       7.180703e-02       7.180705e-02 
       5.000000e-01      -7.180703e-02       7.180705e-02 
       5.000000e-01      -7.180703e-02      -7.180702e-02 
       5.000000e-01       7.180703e-02      -7.180702e-02 
       5.000000e-01       7.180703e-02       7.180705e-02 
       5.000000e-01      -7.180703e-02       7.180705e-02 
       6.000000e-01      -7.180703e-02      -7.180701e-02 
       6.000000e-01       7.180703e-02      -7.180701e-02 
       6.000000e-01       7.180703e-02       7.180706e-02 
       6.000000e-01      -7.180703e-02       7.180706e-02 
       6.000000e-01      -7.180703e-02      -7.180701e-02 
       6.000000e-01       7.180703e-02      -7.180701e-02 
       6.000000e-01       7.180703e-02       7.180706e-02 
       6.000000e-01      -7.180703e-02       7.180706e-02 
       7.000000e-01      -7.180703e-02      -7.180700e-02 
       7.000000e-01       7.180703e-02      -7.180700e-02 
       7.000000e-01       7.180703e-02       7.180707e-02 
       7.000000e-01      -7.180703e-02       7.180707e-02 
       7.000000e-01      -7.180703e-02      -7.180700e-02 
       7.000000e-01       7.180703e-02      -7.180700e-02 
       7.000000e-01       7.180703e-02       7.180707e-02 
       7.000000e-01      -7.180703e-02       7.180707e-02 
       8.000000e-01      -7.180703e-02      -7.180699e-02 
       8.000000e-01       7.180703e-02      -7.180699e-02 
       8.000000e-01       7.180703e-02       7.180708e-02 
       8.000000e-01      -7.180703e-02       7.180708e-02 
       8.000000e-01      -7.180703e-02      -7.180699e-02 
       8.000000e-01       7.180703e-02      -7.180699e-02 
       8.000000e-01       7.180703e-02       7.180708e-02 
       8.000000e-01      -7.180703e-02       7.180708e-02 
       9.000000e-01      -7.180703e-02      -7.180698e-02 
       9.000000e-01       7.180703e-02      -7.180698e-02 
       9.000000e-01       7.180703e-02       7.180709e-02 
       9.000000e-01      -7.180703e-02       7.180709e-02 
       9.000000e-01      -7.180703e-02      -7.180698e-02 
       9.000000e-01       7.180703e-02      -7.180698e-02 
       9.000000e-01       7.180703e-02       7.180709e-02 
       9.000000e-01      -7.180703e-02       7.180709e-02 
       1.000000e+00      -7.180703e-02      -7.180697e-02 
       1.000000e+00       7.180703e-02      -7.180697e-02 
       1.000000e+00       7.180703e-02       7.180710e-02 
       1.000000e+00      -7.180703e-02       7.180710e-02 
       1.000000e+00      -7.180703e-02      -7.180697e-02 
       1.000000e+00       7.180703e-02      -7.180697e-02 
       1.000000e+00       7.180703e-02       7.180710e-02 
       1.000000e+00      -7.180703e-02       7.180710e-02 
       1.100000e+00      -7.180703e-02      -7.180695e-02 
       1.100000e+00       7.180703e-02      -7.180695e-02 
       1.100000e+00       7.180703e-02       7.180711e-02 
       1.100000e+00      -7.180703e-02       7.180711e-02 
       1.100000e+00      -7.180703e-02      -7.180695e-02 
       1.100000e+00       7.180703e-02      -7.180695e-02 
       1.100000e+00       7.180703e-02       7.180711e-02 
       1.100000e+00      -7.180703e-02       7.180711e-02 
       1.200000e+00      -7.180703e-02      -7.180694e-02 
       1.200000e+00       7.180703e-02      -7.180694e-02 
       1.200000e+00       7.180703e-02       7.180713e-02 
       1.200000e+00      -7.180703e-02       7.180713e-02 
       1.200000e+00      -7.180703e-02      -7.180694e-02 
       1.200000e+00       7.180703e-02      -7.180694e-02 
       1.200000e+00       7.180703e-02       7.180713e-02 
       1.200000e+00      -7.180703e-02       7.180713e-02 
       1.300000e+00      -7.180703e-02      -7.180692e-02 
       1.300000e+00       7.180703e-02      -7.180692e-02 
       1.300000e+00       7.180703e-02       7.180714e-02 
       1.300000e+00      -7.180703e-02       7.180714e-02 
       1.300000e+00      -7.180703e-02      -7.180692e-02 
       1.300000e+00       7.180703e-02      -7.180692e-02 
       1.300000e+00       7.180703e-02       7.180714e-02 
       1.300000e+00      -7.180703e-02       7.180714e-02 
       1.400000e+00      -7.180703e-02      -7.180691e-02 
       1.400000e+00       7.180703e-02      -7.180691e-02 
       1.400000e+00       7.180703e-02       7.180716e-02 
       1.400000e+00      -7.180703e-02       7.180716e-02 
       1.400000e+00      -7.180703e-02      -7.180691e-02 
       1.400000e+00       7.180703e-02      -7.180691e-02 
       1.400000e+00       7.180703e-02       7.180716e-02 
       1.400000e+00      -7.180703e-02       7.180716e-02 
       1.500000e+00      -7.180703e-02      -7.180689e-02 
       1.500000e+00       7.180703e-02      -7.180689e-02 
       1.500000e+00       7.180703e-02       7.180718e-02 
       1.500000e+00      -7.180703e-02       7.180718e-02 
       1.500000e+00      -7.180703e-02      -7.180689e-02 
       1.500000e+00       7.180703e-02      -7.180689e-02 
       1.500000e+00       7.180703e-02       7.180718e-02 
       1.500000e+00      -7.180703e-02       7.180718e-02 
       1.600000e+00      -7.180703e-02      -7.180687e-02 
       1.600000e+00       7.180704e-02      -7.180687e-02 
       1.600000e+00       7.180704e-02       7.180719e-02 
       1.600000e+00      -7.180703e-02       7.180719e-02 
       1.600000e+00      -7.180703e-02      -7.180687e-02 
       1.600000e+00       7.180704e-02      -7.180687e-02 
       1.600000e+00       7.180704e-02       7.180719e-02 
       1.600000e+00      -7.180703e-02       7.180719e-02 
       1.700000e+00      -7.180703e-02      -7.180685e-02 
       1.700000e+00       7.180704e-02      -7.180685e-02 
       1.700000e+00       7.180704e-02       7.180721e-02 
       1.700000e+00      -7.180703e-02       7.180721e-02 
       1.700000e+00      -7.180703e-02      -7.180685e-02 
       1.700000e+00       7.180704e-02      -7.180685e-02 
       1.700000e+00       7.180704e-02       7.180721e-02 
       1.700000e+00      -7.180703e-02       7.180721e-02 
       1.800000e+00      -7.180703e-02      -7.180683e-02 
       1.800000e+00       7.180704e-02      -7.180683e-02 
       1.800000e+00       7.180704e-02       7.180723e-02 
       1.800000e+00      -7.180703e-02       7.180723e-02 
       1.800000e+00      -7.180703e-02      -7.180683e-02 
       1.800000e+00       7.180704e-02      -7.180683e-02 
       1.800000e+00       7.180704e-02       7.180723e-02 
       1.800000e+00      -7.180703e-02       7.180723e-02 
       1.900000e+00      -7.180703e-02      -7.180681e-02 
       1.900000e+00       7.180704e-02      -7.180681e-02 
       1.900000e+00       7.180704e-02       7.180725e-02 
       1.900000e+00      -7.180703e-02       7.180725e-02 
       1.900000e+00      -7.180703e-02      -7.180681e-02 
       1.900000e+00       7.180704e-02      -7.180681e-02 
       1.900000e+00       7.180704e-02       7.180725e-02 
       1.900000e+00      -7.180703e-02       7.180725e-02 
       2.000000e+00      -7.180703e-02      -7.180679e-02 
       2.000000e+00       7.180704e-02      -7.180679e-02 
       2.000000e+00       7.180704e-02       7.180728e-02 
       2.000000e+00      -7.180703e-02       7.180728e-02 
       2.000000e+00      -7.180703e-02      -7.180679e-02 
       2.000000e+00       7.180704e-02      -7.180679e-02 
       2.000000e+00       7.180704e-02       7.180728e-02 
       2.000000e+00      -7.180703e-02       7.180728e-02 
       2.100000e+00      -7.180703e-02      -7.180677e-02 
[...]
POINT_DATA       800 
VECTORS Displacements float
      -1.10492414e-24      -1.38777878e-17      -1.38777878e-17 
      -5.94430295e-25       1.38777878e-17      -1.38777878e-17 
       1.10492414e-24       1.38777878e-17       1.38777878e-17 
       5.94430295e-25      -1.38777878e-17       1.38777878e-17 
       1.00396376e-09       8.42645398e-12       6.92910063e-10 
       9.79837808e-10       8.42648173e-12       6.92910063e-10 
      -1.00404157e-09       8.42649561e-12       6.92910063e-10 
      -9.79915621e-10       8.42646786e-12       6.92910063e-10 
       1.00396376e-09       8.42645398e-12       6.92910063e-10 
       9.79837808e-10       8.42648173e-12       6.92910063e-10 
      -1.00404157e-09       8.42649561e-12       6.92910063e-10 
      -9.79915621e-10       8.42646786e-12       6.92910063e-10 
       1.98863592e-09       3.34906686e-11       2.75394495e-09 
       1.94084762e-09       3.34906963e-11       2.75394493e-09 
      -1.98879174e-09       3.34907241e-11       2.75394491e-09 
      -1.94100344e-09       3.34906963e-11       2.75394492e-09 
       1.98863592e-09       3.34906686e-11       2.75394495e-09 
       1.94084762e-09       3.34906963e-11       2.75394493e-09 
      -1.98879174e-09       3.34907241e-11       2.75394491e-09 
      -1.94100344e-09       3.34906963e-11       2.75394492e-09 
       2.95401653e-09       7.48698464e-11       6.15656177e-09 
       2.88302943e-09       7.48698881e-11       6.15656173e-09 
      -2.95425057e-09       7.48699158e-11       6.15656162e-09 
      -2.88326346e-09       7.48698742e-11       6.15656166e-09 
       2.95401653e-09       7.48698464e-11       6.15656177e-09 
       2.88302943e-09       7.48698881e-11       6.15656173e-09 
      -2.95425057e-09       7.48699158e-11       6.15656162e-09 
      -2.88326346e-09       7.48698742e-11       6.15656166e-09 
       3.90010563e-09       1.32241218e-10       1.08742176e-08 
       3.80638332e-09       1.32241246e-10       1.08742175e-08 
      -3.90041793e-09       1.32241273e-10       1.08742173e-08 
      -3.80669563e-09       1.32241246e-10       1.08742174e-08 
       3.90010563e-09       1.32241218e-10       1.08742176e-08 
       3.80638332e-09       1.32241246e-10       1.08742175e-08 
      -3.90041793e-09       1.32241273e-10       1.08742173e-08 
      -3.80669563e-09       1.32241246e-10       1.08742174e-08 
       4.82690310e-09       2.05281930e-10       1.68803694e-08 
       4.71090911e-09       2.05281972e-10       1.68803693e-08 
      -4.82729401e-09       2.05282027e-10       1.68803690e-08 
      -4.71130002e-09       2.05281986e-10       1.68803691e-08 
       4.82690310e-09       2.05281930e-10       1.68803694e-08 
       4.71090911e-09       2.05281972e-10       1.68803693e-08 
      -4.82729401e-09       2.05282027e-10       1.68803690e-08 
      -4.71130002e-09       2.05281986e-10       1.68803691e-08 
       5.73440906e-09       2.93669283e-10       2.41484744e-08 
       5.59660696e-09       2.93669311e-10       2.41484743e-08 
      -5.73487868e-09       2.93669367e-10       2.41484739e-08 
      -5.59707658e-09       2.93669339e-10       2.41484740e-08 
       5.73440906e-09       2.93669283e-10       2.41484744e-08 
       5.59660696e-09       2.93669311e-10       2.41484743e-08 
      -5.73487868e-09       2.93669367e-10       2.41484739e-08 
      -5.59707658e-09       2.93669339e-10       2.41484740e-08 
       6.62262345e-09       3.97080424e-10       3.26519896e-08 
       6.46347675e-09       3.97080466e-10       3.26519895e-08 
      -6.62317190e-09       3.97080535e-10       3.26519889e-08 
      -6.46402520e-09       3.97080507e-10       3.26519890e-08 
       6.62262345e-09       3.97080424e-10       3.26519896e-08 
       6.46347675e-09       3.97080466e-10       3.26519895e-08 
      -6.62317190e-09       3.97080535e-10       3.26519889e-08 
      -6.46402520e-09       3.97080507e-10       3.26519890e-08 
       7.49154638e-09       5.15192597e-10       4.23643721e-08 
       7.31151883e-09       5.15192625e-10       4.23643719e-08 
      -7.49217366e-09       5.15192708e-10       4.23643712e-08 
      -7.31214611e-09       5.15192680e-10       4.23643713e-08 
       7.49154638e-09       5.15192597e-10       4.23643721e-08 
       7.31151883e-09       5.15192625e-10       4.23643719e-08 
      -7.49217366e-09       5.15192708e-10       4.23643712e-08 
      -7.31214611e-09       5.15192680e-10       4.23643713e-08 
       8.34117764e-09       6.47682991e-10       5.32590789e-08 
       8.14073264e-09       6.47683032e-10       5.32590787e-08 
      -8.34188418e-09       6.47683129e-10       5.32590778e-08 
      -8.14143919e-09       6.47683102e-10       5.32590779e-08 
       8.34117764e-09       6.47682991e-10       5.32590789e-08 
       8.14073264e-09       6.47683032e-10       5.32590787e-08 
      -8.34188418e-09       6.47683129e-10       5.32590778e-08 
      -8.14143919e-09       6.47683102e-10       5.32590779e-08 
       9.17151755e-09       7.94228849e-10       6.53095671e-08 
       8.95111851e-09       7.94228877e-10       6.53095670e-08 
      -9.17230325e-09       7.94228988e-10       6.53095658e-08 
      -8.95190444e-09       7.94228960e-10       6.53095660e-08 
       9.17151732e-09       7.94228849e-10       6.53095671e-08 
       8.95111874e-09       7.94228849e-10       6.53095670e-08 
      -9.17230325e-09       7.94228988e-10       6.53095658e-08 
      -8.95190444e-09       7.94228988e-10       6.53095660e-08 
       9.98359484e-09       9.54513024e-10       7.84897595e-08 
       9.74368142e-09       9.54513024e-10       7.84897594e-08 
      -9.98443239e-09       9.54513149e-10       7.84897580e-08 
      -9.74451897e-09       9.54513149e-10       7.84897582e-08 
       9.98359484e-09       9.54513024e-10       7.84897595e-08 
       9.74368142e-09       9.54513024e-10       7.84897594e-08 
      -9.98443239e-09       9.54513149e-10       7.84897580e-08 
      -9.74451897e-09       9.54513149e-10       7.84897582e-08 
       1.07784115e-08       1.12824106e-09       9.27754415e-08 
       1.05193982e-08       1.12824106e-09       9.27754413e-08 
      -1.07793008e-08       1.12824117e-09       9.27754397e-08 
      -1.05202875e-08       1.12824117e-09       9.27754399e-08 
       1.07784115e-08       1.12824106e-09       9.27754415e-08 
       1.05193982e-08       1.12824106e-09       9.27754413e-08 
      -1.07793008e-08       1.12824117e-09       9.27754397e-08 
      -1.05202875e-08       1.12824117e-09       9.27754399e-08 
       1.15559669e-08       1.31512411e-09       1.08142864e-07 
       1.12782685e-08       1.31512411e-09       1.08142864e-07 
      -1.15569088e-08       1.31512423e-09       1.08142862e-07 
      -1.12792102e-08       1.31512423e-09       1.08142862e-07 
       1.15559669e-08       1.31512411e-09       1.08142864e-07 
       1.12782685e-08       1.31512411e-09       1.08142864e-07 
      -1.15569088e-08       1.31512423e-09       1.08142862e-07 
      -1.12792102e-08       1.31512423e-09       1.08142862e-07 
       1.23162616e-08       1.51487338e-09       1.24568278e-07 
       1.20202928e-08       1.51487338e-09       1.24568278e-07 
      -1.23172559e-08       1.51487352e-09       1.24568276e-07 
      -1.20212871e-08       1.51487352e-09       1.24568276e-07 
       1.23162616e-08       1.51487338e-09       1.24568278e-07 
       1.20202928e-08       1.51487338e-09       1.24568278e-07 
      -1.23172559e-08       1.51487352e-09       1.24568276e-07 
      -1.20212871e-08       1.51487352e-09       1.24568276e-07 
       1.30592950e-08       1.72720006e-09       1.42027935e-07 
       1.27454707e-08       1.72720006e-09       1.42027935e-07 
      -1.30603426e-08       1.72720020e-09       1.42027933e-07 
      -1.27465185e-08       1.72720020e-09       1.42027933e-07 
       1.30592950e-08       1.72720006e-09       1.42027935e-07 
       1.27454707e-08       1.72720006e-09       1.42027935e-07 
      -1.30603426e-08       1.72720020e-09       1.42027933e-07 
      -1.27465185e-08       1.72720020e-09       1.42027933e-07 
       1.37850673e-08       1.95181538e-09       1.60498086e-07 
       1.34538025e-08       1.95181538e-09       1.60498086e-07 
      -1.37861689e-08       1.95181551e-09       1.60498084e-07 
      -1.34549039e-08       1.95181551e-09       1.60498084e-07 
       1.37850673e-08       1.95181538e-09       1.60498086e-07 
       1.34538025e-08       1.95181538e-09       1.60498086e-07 
      -1.37861689e-08       1.95181551e-09       1.60498084e-07 
      -1.34549039e-08       1.95181551e-09       1.60498084e-07 
       1.44935790e-08       2.18843048e-09       1.79954982e-07 
       1.41452883e-08       2.18843048e-09       1.79954982e-07 
      -1.44947341e-08       2.18843060e-09       1.79954979e-07 
      -1.41464434e-08       2.18843060e-09       1.79954979e-07 
       1.44935790e-08       2.18843048e-09       1.79954982e-07 
       1.41452883e-08       2.18843048e-09       1.79954982e-07 
      -1.44947341e-08       2.18843060e-09       1.79954979e-07 
      -1.41464434e-08       2.18843060e-09       1.79954979e-07 
       1.51848296e-08       2.43675653e-09       2.00374874e-07 
       1.48199275e-08       2.43675653e-09       2.00374874e-07 
      -1.51860391e-08       2.43675670e-09       2.00374871e-07 
      -1.48211370e-08       2.43675670e-09       2.00374871e-07 
       1.51848296e-08       2.43675653e-09       2.00374874e-07 
       1.48199275e-08       2.43675653e-09       2.00374874e-07 
      -1.51860391e-08       2.43675670e-09       2.00374871e-07 
      -1.48211370e-08       2.43675670e-09       2.00374871e-07 
       1.58588196e-08       2.69650478e-09       2.21734013e-07 
       1.54777209e-08       2.69650478e-09       2.21734012e-07 
      -1.58600830e-08       2.69650494e-09       2.21734009e-07 
      -1.54789845e-08       2.69650494e-09       2.21734009e-07 
       1.58588196e-08       2.69650478e-09       2.21734013e-07 
       1.54777209e-08       2.69650478e-09       2.21734012e-07 
      -1.58600830e-08       2.69650494e-09       2.21734009e-07 
      -1.54789845e-08       2.69650494e-09       2.21734009e-07 
       1.65155485e-08       2.96738639e-09       2.44008650e-07 
       1.61186677e-08       2.96738639e-09       2.44008649e-07 
      -1.65168668e-08       2.96738654e-09       2.44008646e-07 
      -1.61199865e-08       2.96738654e-09       2.44008646e-07 
       1.65155480e-08       2.96738641e-09       2.44008650e-07 
       1.61186677e-08       2.96738641e-09       2.44008649e-07 
      -1.65168670e-08       2.96738654e-09       2.44008646e-07 
      -1.61199867e-08       2.96738654e-09       2.44008646e-07 
       1.71560410e-08       3.24911824e-09       2.67175501e-07 
       1.67437690e-08       3.24911824e-09       2.67175501e-07 
      -1.71573955e-08       3.24911836e-09       2.67175497e-07 
      -1.67451240e-08       3.24911836e-09       2.67175497e-07 
       1.71560410e-08       3.24911824e-09       2.67175501e-07 
       1.67437690e-08       3.24911824e-09       2.67175501e-07 
      -1.71573955e-08       3.24911836e-09       2.67175497e-07 
      -1.67451240e-08       3.24911836e-09       2.67175497e-07 
       1.77813035e-08       3.54143977e-09       2.91213147e-07 
       1.73540062e-08       3.54143977e-09       2.91213147e-07 
      -1.77826944e-08       3.54143992e-09       2.91213143e-07 
      -1.73553971e-08       3.54143992e-09       2.91213143e-07 
       1.77813035e-08       3.54143977e-09       2.91213147e-07 
       1.73540062e-08       3.54143977e-09       2.91213147e-07 
      -1.77826944e-08       3.54143992e-09       2.91213143e-07 
      -1.73553971e-08       3.54143992e-09       2.91213143e-07 
       1.83913360e-08       3.84409621e-09       3.16100632e-07 
       1.79493798e-08       3.84409621e-09       3.16100632e-07 
      -1.83927629e-08       3.84409635e-09       3.16100628e-07 
      -1.79508062e-08       3.84409635e-09       3.16100628e-07 
       1.83913360e-08       3.84409621e-09       3.16100632e-07 
       1.79493798e-08       3.84409621e-09       3.16100632e-07 
      -1.83927629e-08       3.84409635e-09       3.16100628e-07 
      -1.79508062e-08       3.84409635e-09       3.16100628e-07 
       1.89861376e-08       4.15683268e-09       3.41817002e-07 
       1.85298878e-08       4.15683268e-09       3.41817002e-07 
      -1.89876017e-08       4.15683284e-09       3.41816997e-07 
      -1.85313520e-08       4.15683284e-09       3.41816997e-07 
       1.89861376e-08       4.15683268e-09       3.41817002e-07 
       1.85298878e-08       4.15683268e-09       3.41817002e-07 
      -1.89876017e-08       4.15683284e-09       3.41816997e-07 
      -1.85313520e-08       4.15683284e-09       3.41816997e-07 
       1.95657091e-08       4.47939440e-09       3.68341301e-07 
       1.90955318e-08       4.47939440e-09       3.68341301e-07 
      -1.95672110e-08       4.47939454e-09       3.68341296e-07 
      -1.90970337e-08       4.47939454e-09       3.68341296e-07 
       1.95657091e-08       4.47939440e-09       3.68341301e-07 
       1.90955318e-08       4.47939440e-09       3.68341301e-07 
      -1.95672110e-08       4.47939454e-09       3.68341296e-07 
      -1.90970337e-08       4.47939454e-09       3.68341296e-07 
       2.01300501e-08       4.81152650e-09       3.95652574e-07 
       1.96463117e-08       4.81152650e-09       3.95652574e-07 
      -2.01315897e-08       4.81152662e-09       3.95652569e-07 
      -1.96478513e-08       4.81152662e-09       3.95652569e-07 
       2.01300501e-08       4.81152650e-09       3.95652574e-07 
       1.96463117e-08       4.81152650e-09       3.95652574e-07 
      -2.01315897e-08       4.81152662e-09       3.95652569e-07 
      -1.96478513e-08       4.81152662e-09       3.95652569e-07 
       2.06791611e-08       5.15297414e-09       4.23729867e-07 
       2.01822270e-08       5.15297414e-09       4.23729867e-07 
      -2.06807393e-08       5.15297427e-09       4.23729861e-07 
      -2.01838053e-08       5.15297428e-09       4.23729862e-07 
       2.06791611e-08       5.15297414e-09       4.23729867e-07 
       2.01822270e-08       5.15297414e-09       4.23729867e-07 
      -2.06807393e-08       5.15297427e-09       4.23729861e-07 
      -2.01838053e-08       5.15297428e-09       4.23729862e-07 
       2.12130420e-08       5.50348252e-09       4.52552225e-07 
       2.07032786e-08       5.50348252e-09       4.52552225e-07 
      -2.12146580e-08       5.50348264e-09       4.52552218e-07 
      -2.07048947e-08       5.50348264e-09       4.52552219e-07 
       2.12130420e-08       5.50348252e-09       4.52552225e-07 
       2.07032786e-08       5.50348252e-09       4.52552225e-07 
      -2.12146580e-08       5.50348264e-09       4.52552218e-07 
      -2.07048947e-08       5.50348264e-09       4.52552219e-07 
       2.17316924e-08       5.86279678e-09       4.82098692e-07 
       2.12094653e-08       5.86279678e-09       4.82098692e-07 
      -2.17333476e-08       5.86279690e-09       4.82098685e-07 
      -2.12111204e-08       5.86279690e-09       4.82098686e-07 
       2.17316924e-08       5.86279678e-09       4.82098692e-07 
       2.12094653e-08       5.86279678e-09       4.82098692e-07 
      -2.17333476e-08       5.86279690e-09       4.82098685e-07 
      -2.12111204e-08       5.86279690e-09       4.82098686e-07 
       2.22351124e-08       6.23066208e-09       5.12348314e-07 
       2.17007878e-08       6.23066208e-09       5.12348313e-07 
      -2.22368071e-08       6.23066222e-09       5.12348307e-07 
      -2.17024825e-08       6.23066222e-09       5.12348307e-07 
       2.22351124e-08       6.23066208e-09       5.12348314e-07 
       2.17007878e-08       6.23066207e-09       5.12348313e-07 
      -2.22368071e-08       6.23066222e-09       5.12348307e-07 
      -2.17024825e-08       6.23066224e-09       5.12348307e-07 
       2.27243238e-08       6.60682928e-09       5.43280601e-07 
       2.21782432e-08       6.60682926e-09       5.43280601e-07 
      -2.27260455e-08       6.60682942e-09       5.43280594e-07 
      -2.21799650e-08       6.60682943e-09       5.43280594e-07 
       2.27243238e-08       6.60682928e-09       5.43280601e-07 
       2.21782432e-08       6.60682926e-09       5.43280601e-07 
      -2.27260455e-08       6.60682942e-09       5.43280594e-07 
      -2.21799650e-08       6.60682943e-09       5.43280594e-07 
       2.32003359e-08       6.99107186e-09       5.74876927e-07 
       2.26428165e-08       6.99107185e-09       5.74876927e-07 
      -2.32020847e-08       6.99107200e-09       5.74876919e-07 
      -2.26445653e-08       6.99107201e-09       5.74876920e-07 
       2.32003359e-08       6.99107186e-09       5.74876927e-07 
       2.26428165e-08       6.99107185e-09       5.74876927e-07 
      -2.32020847e-08       6.99107200e-09       5.74876919e-07 
      -2.26445653e-08       6.99107201e-09       5.74876920e-07 
       2.36631488e-08       7.38316895e-09       6.07119131e-07 
       2.30945076e-08       7.38316892e-09       6.07119131e-07 
      -2.36649242e-08       7.38316908e-09       6.07119123e-07 
      -2.30962831e-08       7.38316909e-09       6.07119123e-07 
       2.36631488e-08       7.38316895e-09       6.07119131e-07 
       2.30945076e-08       7.38316892e-09       6.07119131e-07 
      -2.36649242e-08       7.38316908e-09       6.07119123e-07 
      -2.30962831e-08       7.38316909e-09       6.07119123e-07 
       2.41127611e-08       7.78289969e-09       6.39989052e-07 
       2.35333157e-08       7.78289967e-09       6.39989051e-07 
      -2.41145650e-08       7.78289981e-09       6.39989043e-07 
      -2.35351196e-08       7.78289982e-09       6.39989044e-07 
       2.41127611e-08       7.78289969e-09       6.39989052e-07 
       2.35333157e-08       7.78289967e-09       6.39989051e-07 
      -2.41145650e-08       7.78289981e-09       6.39989043e-07 
      -2.35351196e-08       7.78289982e-09       6.39989044e-07 
       2.45491742e-08       8.19004324e-09       6.73468528e-07 
       2.39592413e-08       8.19004321e-09       6.73468528e-07 
      -2.45510066e-08       8.19004335e-09       6.73468520e-07 
      -2.39610740e-08       8.19004338e-09       6.73468520e-07 
       2.45491742e-08       8.19004324e-09       6.73468528e-07 
       2.39592413e-08       8.19004321e-09       6.73468528e-07 
      -2.45510066e-08       8.19004335e-09       6.73468520e-07 
      -2.39610740e-08       8.19004338e-09       6.73468520e-07 
       2.49723873e-08       8.60437872e-09       7.07539400e-07 
       2.43722846e-08       8.60437871e-09       7.07539400e-07 
      -2.49742489e-08       8.60437885e-09       7.07539391e-07 
      -2.43741458e-08       8.60437886e-09       7.07539392e-07 
       2.49723873e-08       8.60437872e-09       7.07539400e-07 
       2.43722846e-08       8.60437871e-09       7.07539400e-07 
      -2.49742489e-08       8.60437885e-09       7.07539391e-07 
      -2.43741458e-08       8.60437886e-09       7.07539392e-07 
       2.53824011e-08       9.02568532e-09       7.42183506e-07 
       2.47724454e-08       9.02568531e-09       7.42183506e-07 
      -2.53842916e-08       9.02568544e-09       7.42183497e-07 
      -2.47743364e-08       9.02568545e-09       7.42183497e-07 
       2.53824011e-08       9.02568532e-09       7.42183506e-07 
       2.47724454e-08       9.02568531e-09       7.42183506e-07 
      -2.53842916e-08       9.02568544e-09       7.42183497e-07 
      -2.47743364e-08       9.02568545e-09       7.42183497e-07 
       2.57792157e-08       9.45374214e-09       7.77382685e-07 
       2.51597245e-08       9.45374212e-09       7.77382684e-07 
      -2.57811350e-08       9.45374225e-09       7.77382675e-07 
      -2.51616439e-08       9.45374226e-09       7.77382676e-07 
       2.57792157e-08       9.45374214e-09       7.77382685e-07 
       2.51597245e-08       9.45374212e-09       7.77382684e-07 