# vtk DataFile Version 2.0
./output/onsasExample_nonLinearCantileverBlade_staitc3D_no_pitch numElements=10/onsasExample_nonLinearCantileverBlade_staitc3D_no_pitch numElements=10_0026.vtk
ASCII
DATASET UNSTRUCTURED_GRID

POINTS 800 float
      -7.281394e-25      -7.180703e-02      -7.180703e-02 
       3.212531e-25       7.180703e-02      -7.180703e-02 
       7.281394e-25       7.180703e-02       7.180703e-02 
      -3.212531e-25      -7.180703e-02       7.180703e-02 
       1.000000e-01      -7.180703e-02      -7.180703e-02 
       1.000000e-01       7.180703e-02      -7.180703e-02 
       1.000000e-01       7.180703e-02       7.180703e-02 
       1.000000e-01      -7.180703e-02       7.180703e-02 
       1.000000e-01      -7.180703e-02      -7.180703e-02 
       1.000000e-01       7.180703e-02      -7.180703e-02 
       1.000000e-01       7.180703e-02       7.180703e-02 
       1.000000e-01      -7.180703e-02       7.180703e-02 
       2.000000e-01      -7.180703e-02      -7.180703e-02 
       2.000000e-01       7.180704e-02      -7.180703e-02 
       2.000000e-01       7.180704e-02       7.180703e-02 
       2.000000e-01      -7.180703e-02       7.180703e-02 
       2.000000e-01      -7.180703e-02      -7.180703e-02 
       2.000000e-01       7.180704e-02      -7.180703e-02 
       2.000000e-01       7.180704e-02       7.180703e-02 
       2.000000e-01      -7.180703e-02       7.180703e-02 
       3.000000e-01      -7.180703e-02      -7.180703e-02 
       3.000000e-01       7.180704e-02      -7.180703e-02 
       3.000000e-01       7.180704e-02       7.180704e-02 
       3.000000e-01      -7.180703e-02       7.180704e-02 
       3.000000e-01      -7.180703e-02      -7.180703e-02 
       3.000000e-01       7.180704e-02      -7.180703e-02 
       3.000000e-01       7.180704e-02       7.180704e-02 
       3.000000e-01      -7.180703e-02       7.180704e-02 
       4.000000e-01      -7.180702e-02      -7.180703e-02 
       4.000000e-01       7.180704e-02      -7.180703e-02 
       4.000000e-01       7.180704e-02       7.180704e-02 
       4.000000e-01      -7.180702e-02       7.180704e-02 
       4.000000e-01      -7.180702e-02      -7.180703e-02 
       4.000000e-01       7.180704e-02      -7.180703e-02 
       4.000000e-01       7.180704e-02       7.180704e-02 
       4.000000e-01      -7.180702e-02       7.180704e-02 
       5.000000e-01      -7.180702e-02      -7.180702e-02 
       5.000000e-01       7.180705e-02      -7.180702e-02 
       5.000000e-01       7.180705e-02       7.180704e-02 
       5.000000e-01      -7.180702e-02       7.180704e-02 
       5.000000e-01      -7.180702e-02      -7.180702e-02 
       5.000000e-01       7.180705e-02      -7.180702e-02 
       5.000000e-01       7.180705e-02       7.180704e-02 
       5.000000e-01      -7.180702e-02       7.180704e-02 
       6.000000e-01      -7.180701e-02      -7.180702e-02 
       6.000000e-01       7.180705e-02      -7.180702e-02 
       6.000000e-01       7.180705e-02       7.180705e-02 
       6.000000e-01      -7.180701e-02       7.180705e-02 
       6.000000e-01      -7.180701e-02      -7.180702e-02 
       6.000000e-01       7.180705e-02      -7.180702e-02 
       6.000000e-01       7.180705e-02       7.180705e-02 
       6.000000e-01      -7.180701e-02       7.180705e-02 
       7.000000e-01      -7.180701e-02      -7.180701e-02 
       7.000000e-01       7.180706e-02      -7.180701e-02 
       7.000000e-01       7.180706e-02       7.180705e-02 
       7.000000e-01      -7.180701e-02       7.180705e-02 
       7.000000e-01      -7.180701e-02      -7.180701e-02 
       7.000000e-01       7.180706e-02      -7.180701e-02 
       7.000000e-01       7.180706e-02       7.180705e-02 
       7.000000e-01      -7.180701e-02       7.180705e-02 
       8.000000e-01      -7.180700e-02      -7.180701e-02 
       8.000000e-01       7.180707e-02      -7.180701e-02 
       8.000000e-01       7.180707e-02       7.180706e-02 
       8.000000e-01      -7.180700e-02       7.180706e-02 
       8.000000e-01      -7.180700e-02      -7.180701e-02 
       8.000000e-01       7.180707e-02      -7.180701e-02 
       8.000000e-01       7.180707e-02       7.180706e-02 
       8.000000e-01      -7.180700e-02       7.180706e-02 
       9.000000e-01      -7.180699e-02      -7.180700e-02 
       9.000000e-01       7.180707e-02      -7.180700e-02 
       9.000000e-01       7.180707e-02       7.180707e-02 
       9.000000e-01      -7.180699e-02       7.180707e-02 
       9.000000e-01      -7.180699e-02      -7.180700e-02 
       9.000000e-01       7.180707e-02      -7.180700e-02 
       9.000000e-01       7.180707e-02       7.180707e-02 
       9.000000e-01      -7.180699e-02       7.180707e-02 
       1.000000e+00      -7.180698e-02      -7.180699e-02 
       1.000000e+00       7.180708e-02      -7.180699e-02 
       1.000000e+00       7.180708e-02       7.180707e-02 
       1.000000e+00      -7.180698e-02       7.180707e-02 
       1.000000e+00      -7.180698e-02      -7.180699e-02 
       1.000000e+00       7.180708e-02      -7.180699e-02 
       1.000000e+00       7.180708e-02       7.180707e-02 
       1.000000e+00      -7.180698e-02       7.180707e-02 
       1.100000e+00      -7.180697e-02      -7.180698e-02 
       1.100000e+00       7.180709e-02      -7.180698e-02 
       1.100000e+00       7.180709e-02       7.180708e-02 
       1.100000e+00      -7.180697e-02       7.180708e-02 
       1.100000e+00      -7.180697e-02      -7.180698e-02 
       1.100000e+00       7.180709e-02      -7.180698e-02 
       1.100000e+00       7.180709e-02       7.180708e-02 
       1.100000e+00      -7.180697e-02       7.180708e-02 
       1.200000e+00      -7.180696e-02      -7.180698e-02 
       1.200000e+00       7.180710e-02      -7.180698e-02 
       1.200000e+00       7.180710e-02       7.180709e-02 
       1.200000e+00      -7.180696e-02       7.180709e-02 
       1.200000e+00      -7.180696e-02      -7.180698e-02 
       1.200000e+00       7.180710e-02      -7.180698e-02 
       1.200000e+00       7.180710e-02       7.180709e-02 
       1.200000e+00      -7.180696e-02       7.180709e-02 
       1.300000e+00      -7.180695e-02      -7.180697e-02 
       1.300000e+00       7.180712e-02      -7.180697e-02 
       1.300000e+00       7.180712e-02       7.180710e-02 
       1.300000e+00      -7.180695e-02       7.180710e-02 
       1.300000e+00      -7.180695e-02      -7.180697e-02 
       1.300000e+00       7.180712e-02      -7.180697e-02 
       1.300000e+00       7.180712e-02       7.180710e-02 
       1.300000e+00      -7.180695e-02       7.180710e-02 
       1.400000e+00      -7.180694e-02      -7.180696e-02 
       1.400000e+00       7.180713e-02      -7.180696e-02 
       1.400000e+00       7.180713e-02       7.180711e-02 
       1.400000e+00      -7.180694e-02       7.180711e-02 
       1.400000e+00      -7.180694e-02      -7.180696e-02 
       1.400000e+00       7.180713e-02      -7.180696e-02 
       1.400000e+00       7.180713e-02       7.180711e-02 
       1.400000e+00      -7.180694e-02       7.180711e-02 
       1.500000e+00      -7.180692e-02      -7.180694e-02 
       1.500000e+00       7.180714e-02      -7.180694e-02 
       1.500000e+00       7.180714e-02       7.180712e-02 
       1.500000e+00      -7.180692e-02       7.180712e-02 
       1.500000e+00      -7.180692e-02      -7.180694e-02 
       1.500000e+00       7.180714e-02      -7.180694e-02 
       1.500000e+00       7.180714e-02       7.180712e-02 
       1.500000e+00      -7.180692e-02       7.180712e-02 
       1.600000e+00      -7.180691e-02      -7.180693e-02 
       1.600000e+00       7.180716e-02      -7.180693e-02 
       1.600000e+00       7.180716e-02       7.180713e-02 
       1.600000e+00      -7.180691e-02       7.180713e-02 
       1.600000e+00      -7.180691e-02      -7.180693e-02 
       1.600000e+00       7.180716e-02      -7.180693e-02 
       1.600000e+00       7.180716e-02       7.180713e-02 
       1.600000e+00      -7.180691e-02       7.180713e-02 
       1.700000e+00      -7.180689e-02      -7.180692e-02 
       1.700000e+00       7.180717e-02      -7.180692e-02 
       1.700000e+00       7.180717e-02       7.180715e-02 
       1.700000e+00      -7.180689e-02       7.180715e-02 
       1.700000e+00      -7.180689e-02      -7.180692e-02 
       1.700000e+00       7.180717e-02      -7.180692e-02 
       1.700000e+00       7.180717e-02       7.180715e-02 
       1.700000e+00      -7.180689e-02       7.180715e-02 
       1.800000e+00      -7.180688e-02      -7.180691e-02 
       1.800000e+00       7.180719e-02      -7.180691e-02 
       1.800000e+00       7.180719e-02       7.180716e-02 
       1.800000e+00      -7.180688e-02       7.180716e-02 
       1.800000e+00      -7.180688e-02      -7.180691e-02 
       1.800000e+00       7.180719e-02      -7.180691e-02 
       1.800000e+00       7.180719e-02       7.180716e-02 
       1.800000e+00      -7.180688e-02       7.180716e-02 
       1.900000e+00      -7.180686e-02      -7.180689e-02 
       1.900000e+00       7.180720e-02      -7.180689e-02 
       1.900000e+00       7.180720e-02       7.180717e-02 
       1.900000e+00      -7.180686e-02       7.180717e-02 
       1.900000e+00      -7.180686e-02      -7.180689e-02 
       1.900000e+00       7.180720e-02      -7.180689e-02 
       1.900000e+00       7.180720e-02       7.180717e-02 
       1.900000e+00      -7.180686e-02       7.180717e-02 
       2.000000e+00      -7.180684e-02      -7.180688e-02 
       2.000000e+00       7.180722e-02      -7.180688e-02 
       2.000000e+00       7.180722e-02       7.180719e-02 
       2.000000e+00      -7.180684e-02       7.180719e-02 
       2.000000e+00      -7.180684e-02      -7.180688e-02 
       2.000000e+00       7.180722e-02      -7.180688e-02 
       2.000000e+00       7.180722e-02       7.180719e-02 
       2.000000e+00      -7.180684e-02       7.180719e-02 
       2.100000e+00      -7.180683e-02      -7.180687e-02 
[...]
POINT_DATA       800 
VECTORS Displacements float
      -7.28139375e-25       1.38777878e-17       1.38777878e-17 
       3.21253064e-25      -2.77555756e-17       0.00000000e+00 
       7.28139375e-25      -1.38777878e-17      -1.38777878e-17 
      -3.21253064e-25       2.77555756e-17       0.00000000e+00 
       1.38766695e-09       5.36580530e-10       4.33056715e-10 
      -1.48624085e-10       5.36580502e-10       4.33056230e-10 
      -1.38851343e-09       5.36580988e-10       4.33056216e-10 
       1.47777610e-10       5.36581016e-10       4.33056702e-10 
       1.38766695e-09       5.36580530e-10       4.33056715e-10 
      -1.48624085e-10       5.36580502e-10       4.33056230e-10 
      -1.38851343e-09       5.36580988e-10       4.33056216e-10 
       1.47777610e-10       5.36581016e-10       4.33056702e-10 
       2.74866227e-09       2.13261959e-09       1.72116713e-09 
      -2.94400643e-10       2.13261954e-09       1.72116615e-09 
      -2.75035542e-09       2.13262047e-09       1.72116611e-09 
       2.92707497e-10       2.13262051e-09       1.72116708e-09 
       2.74866227e-09       2.13261959e-09       1.72116713e-09 
      -2.94400643e-10       2.13261954e-09       1.72116615e-09 
      -2.75035542e-09       2.13262047e-09       1.72116611e-09 
       2.92707497e-10       2.13262051e-09       1.72116708e-09 
       4.08298589e-09       4.76756268e-09       3.84774237e-09 
      -4.37329672e-10       4.76756258e-09       3.84774090e-09 
      -4.08552592e-09       4.76756394e-09       3.84774086e-09 
       4.34789649e-10       4.76756404e-09       3.84774232e-09 
       4.08298589e-09       4.76756268e-09       3.84774237e-09 
      -4.37329672e-10       4.76756258e-09       3.84774090e-09 
      -4.08552592e-09       4.76756394e-09       3.84774086e-09 
       4.34789649e-10       4.76756404e-09       3.84774232e-09 
       5.39063799e-09       8.42085526e-09       6.79619362e-09 
      -5.77411174e-10       8.42085512e-09       6.79619164e-09 
      -5.39402500e-09       8.42085691e-09       6.79619155e-09 
       5.74024162e-10       8.42085707e-09       6.79619354e-09 
       5.39063799e-09       8.42085526e-09       6.79619362e-09 
      -5.77411174e-10       8.42085512e-09       6.79619164e-09 
      -5.39402500e-09       8.42085691e-09       6.79619155e-09 
       5.74024162e-10       8.42085707e-09       6.79619354e-09 
       6.67161837e-09       1.30719429e-08       1.05499320e-08 
      -7.14645121e-10       1.30719427e-08       1.05499295e-08 
      -6.67585248e-09       1.30719449e-08       1.05499294e-08 
       7.10410952e-10       1.30719451e-08       1.05499319e-08 
       6.67161837e-09       1.30719429e-08       1.05499320e-08 
      -7.14645121e-10       1.30719427e-08       1.05499295e-08 
      -6.67585248e-09       1.30719449e-08       1.05499294e-08 
       7.10410952e-10       1.30719451e-08       1.05499319e-08 
       7.92592714e-09       1.87002710e-08       1.50923687e-08 
      -8.49031512e-10       1.87002707e-08       1.50923656e-08 
      -7.93100863e-09       1.87002733e-08       1.50923654e-08 
       8.43950021e-10       1.87002736e-08       1.50923685e-08 
       7.92592714e-09       1.87002710e-08       1.50923687e-08 
      -8.49031512e-10       1.87002707e-08       1.50923656e-08 
      -7.93100863e-09       1.87002733e-08       1.50923654e-08 
       8.43950021e-10       1.87002736e-08       1.50923685e-08 
       9.15356435e-09       2.52852851e-08       2.04069147e-08 
      -9.80570514e-10       2.52852847e-08       2.04069111e-08 
      -9.15949327e-09       2.52852878e-08       2.04069109e-08 
       9.74641590e-10       2.52852881e-08       2.04069145e-08 
       9.15356435e-09       2.52852851e-08       2.04069147e-08 
      -9.80570514e-10       2.52852847e-08       2.04069111e-08 
      -9.15949327e-09       2.52852878e-08       2.04069109e-08 
       9.74641590e-10       2.52852881e-08       2.04069145e-08 
       1.03545299e-08       3.28064307e-08       2.64769814e-08 
      -1.10926179e-09       3.28064302e-08       2.64769772e-08 
      -1.03613065e-08       3.28064337e-08       2.64769769e-08 
       1.10248521e-09       3.28064341e-08       2.64769811e-08 
       1.03545299e-08       3.28064307e-08       2.64769814e-08 
      -1.10926179e-09       3.28064302e-08       2.64769772e-08 
      -1.03613065e-08       3.28064337e-08       2.64769769e-08 
       1.10248521e-09       3.28064341e-08       2.64769811e-08 
       1.15288239e-08       4.12431533e-08       3.32859797e-08 
      -1.23510557e-09       4.12431527e-08       3.32859750e-08 
      -1.15364481e-08       4.12431565e-08       3.32859746e-08 
       1.22748134e-09       4.12431571e-08       3.32859793e-08 
       1.15288239e-08       4.12431533e-08       3.32859797e-08 
      -1.23510557e-09       4.12431527e-08       3.32859750e-08 
      -1.15364481e-08       4.12431565e-08       3.32859746e-08 
       1.22748134e-09       4.12431571e-08       3.32859793e-08 
       1.26764461e-08       5.05748984e-08       4.08173209e-08 
      -1.35810208e-09       5.05748977e-08       4.08173156e-08 
      -1.26849184e-08       5.05749018e-08       4.08173151e-08 
       1.34962952e-09       5.05749026e-08       4.08173204e-08 
       1.26764461e-08       5.05748984e-08       4.08173209e-08 
      -1.35810196e-09       5.05748977e-08       4.08173156e-08 
      -1.26849184e-08       5.05749019e-08       4.08173152e-08 
       1.34962974e-09       5.05749026e-08       4.08173204e-08 
       1.37989522e-08       6.07814721e-08       4.90547070e-08 
      -1.47824886e-09       6.07814713e-08       4.90547013e-08 
      -1.38079692e-08       6.07814757e-08       4.90547008e-08 
       1.46923185e-09       6.07814765e-08       4.90547064e-08 
       1.37989522e-08       6.07814721e-08       4.90547070e-08 
      -1.47824886e-09       6.07814713e-08       4.90547013e-08 
      -1.38079692e-08       6.07814757e-08       4.90547008e-08 
       1.46923185e-09       6.07814765e-08       4.90547064e-08 
       1.48975945e-08       7.18441230e-08       5.79830044e-08 
      -1.59584790e-09       7.18441221e-08       5.79829984e-08 
      -1.49071562e-08       7.18441266e-08       5.79829978e-08 
       1.58628621e-09       7.18441275e-08       5.79830038e-08 
       1.48975945e-08       7.18441230e-08       5.79830044e-08 
      -1.59584790e-09       7.18441221e-08       5.79829984e-08 
      -1.49071562e-08       7.18441266e-08       5.79829978e-08 
       1.58628621e-09       7.18441275e-08       5.79830038e-08 
       1.59723723e-08       8.37444601e-08       6.75873705e-08 
      -1.71089920e-09       8.37444590e-08       6.75873641e-08 
      -1.59824791e-08       8.37444637e-08       6.75873634e-08 
       1.70079262e-09       8.37444648e-08       6.75873698e-08 
       1.59723723e-08       8.37444601e-08       6.75873705e-08 
      -1.71089920e-09       8.37444590e-08       6.75873641e-08 
      -1.59824791e-08       8.37444637e-08       6.75873634e-08 
       1.70079262e-09       8.37444648e-08       6.75873698e-08 
       1.70232861e-08       9.64640926e-08       7.78529626e-08 
      -1.82340298e-09       9.64640913e-08       7.78529558e-08 
      -1.70339383e-08       9.64640961e-08       7.78529550e-08 
       1.81275084e-09       9.64640974e-08       7.78529618e-08 
       1.70232861e-08       9.64640926e-08       7.78529626e-08 
      -1.82340298e-09       9.64640913e-08       7.78529558e-08 
      -1.70339383e-08       9.64640961e-08       7.78529550e-08 
       1.81275084e-09       9.64640974e-08       7.78529618e-08 
       1.80503354e-08       1.09984630e-07       8.87649381e-08 
      -1.93335925e-09       1.09984628e-07       8.87649309e-08 
      -1.80615338e-08       1.09984633e-07       8.87649300e-08 
       1.92216065e-09       1.09984634e-07       8.87649372e-08 
       1.80503354e-08       1.09984630e-07       8.87649381e-08 
      -1.93335925e-09       1.09984628e-07       8.87649309e-08 
      -1.80615338e-08       1.09984633e-07       8.87649300e-08 
       1.92216065e-09       1.09984634e-07       8.87649372e-08 
       1.90535205e-08       1.24287680e-07       1.00308454e-07 
      -2.04076755e-09       1.24287679e-07       1.00308447e-07 
      -1.90652654e-08       1.24287684e-07       1.00308446e-07 
       2.02902273e-09       1.24287685e-07       1.00308453e-07 
       1.90535205e-08       1.24287680e-07       1.00308454e-07 
      -2.04076755e-09       1.24287679e-07       1.00308447e-07 
      -1.90652654e-08       1.24287684e-07       1.00308446e-07 
       2.02902273e-09       1.24287685e-07       1.00308453e-07 
       2.00328418e-08       1.39354853e-07       1.12468668e-07 
      -2.14562834e-09       1.39354852e-07       1.12468660e-07 
      -2.00451329e-08       1.39354857e-07       1.12468659e-07 
       2.13333706e-09       1.39354859e-07       1.12468667e-07 
       2.00328418e-08       1.39354853e-07       1.12468668e-07 
      -2.14562834e-09       1.39354852e-07       1.12468660e-07 
      -2.00451329e-08       1.39354857e-07       1.12468659e-07 
       2.13333706e-09       1.39354859e-07       1.12468667e-07 
       2.09882984e-08       1.55167758e-07       1.25230738e-07 
      -2.24794139e-09       1.55167757e-07       1.25230729e-07 
      -2.10011371e-08       1.55167762e-07       1.25230728e-07 
       2.23510299e-09       1.55167764e-07       1.25230737e-07 
       2.09882984e-08       1.55167758e-07       1.25230738e-07 
      -2.24794139e-09       1.55167757e-07       1.25230729e-07 
      -2.10011371e-08       1.55167762e-07       1.25230728e-07 
       2.23510299e-09       1.55167764e-07       1.25230737e-07 
       2.19198915e-08       1.71708005e-07       1.38579820e-07 
      -2.34770670e-09       1.71708003e-07       1.38579811e-07 
      -2.19332770e-08       1.71708008e-07       1.38579810e-07 
       2.33432118e-09       1.71708010e-07       1.38579819e-07 
       2.19198915e-08       1.71708005e-07       1.38579820e-07 
      -2.34770670e-09       1.71708003e-07       1.38579811e-07 
      -2.19332770e-08       1.71708008e-07       1.38579810e-07 
       2.33432118e-09       1.71708010e-07       1.38579819e-07 
       2.28276198e-08       1.88957201e-07       1.52501072e-07 
      -2.44492426e-09       1.88957199e-07       1.52501063e-07 
      -2.28415533e-08       1.88957204e-07       1.52501062e-07 
       2.43099052e-09       1.88957207e-07       1.52501071e-07 
       2.28276198e-08       1.88957201e-07       1.52501072e-07 
      -2.44492426e-09       1.88957199e-07       1.52501063e-07 
      -2.28415533e-08       1.88957204e-07       1.52501062e-07 
       2.43099096e-09       1.88957207e-07       1.52501071e-07 
       2.37129947e-08       2.06897317e-07       1.66979943e-07 
      -2.53963739e-09       2.06897315e-07       1.66979933e-07 
      -2.37272628e-08       2.06897320e-07       1.66979932e-07 
       2.52536925e-09       2.06897323e-07       1.66979941e-07 
       2.37129947e-08       2.06897317e-07       1.66979943e-07 
      -2.53963739e-09       2.06897315e-07       1.66979933e-07 
      -2.37272628e-08       2.06897320e-07       1.66979932e-07 
       2.52536925e-09       2.06897323e-07       1.66979941e-07 
       2.45773126e-08       2.25511765e-07       1.82003044e-07 
      -2.63210254e-09       2.25511763e-07       1.82003035e-07 
      -2.45919161e-08       2.25511768e-07       1.82003033e-07 
       2.61749955e-09       2.25511771e-07       1.82003043e-07 
       2.45773126e-08       2.25511765e-07       1.82003044e-07 
      -2.63210254e-09       2.25511763e-07       1.82003035e-07 
      -2.45919161e-08       2.25511768e-07       1.82003033e-07 
       2.61749955e-09       2.25511771e-07       1.82003043e-07 
       2.54205745e-08       2.44784318e-07       1.97557280e-07 
      -2.72231970e-09       2.44784315e-07       1.97557270e-07 
      -2.54355124e-08       2.44784321e-07       1.97557268e-07 
       2.70738187e-09       2.44784324e-07       1.97557278e-07 
       2.54205745e-08       2.44784318e-07       1.97557280e-07 
      -2.72231970e-09       2.44784315e-07       1.97557270e-07 
      -2.54355124e-08       2.44784321e-07       1.97557268e-07 
       2.70738187e-09       2.44784324e-07       1.97557278e-07 
       2.62427791e-08       2.64698749e-07       2.13629554e-07 
      -2.81028889e-09       2.64698746e-07       2.13629544e-07 
      -2.62580531e-08       2.64698751e-07       2.13629542e-07 
       2.79501533e-09       2.64698754e-07       2.13629552e-07 
       2.62427791e-08       2.64698749e-07       2.13629554e-07 
      -2.81028889e-09       2.64698746e-07       2.13629544e-07 
      -2.62580531e-08       2.64698751e-07       2.13629542e-07 
       2.79501533e-09       2.64698754e-07       2.13629552e-07 
       2.70439271e-08       2.85238829e-07       2.30206770e-07 
      -2.89601054e-09       2.85238826e-07       2.30206759e-07 
      -2.70595377e-08       2.85238832e-07       2.30206757e-07 
       2.88040036e-09       2.85238835e-07       2.30206768e-07 
       2.70439271e-08       2.85238829e-07       2.30206770e-07 
      -2.89601054e-09       2.85238826e-07       2.30206759e-07 
      -2.70595377e-08       2.85238832e-07       2.30206757e-07 
       2.88040036e-09       2.85238835e-07       2.30206768e-07 
       2.78240182e-08       3.06388333e-07       2.47275830e-07 
      -2.97948421e-09       3.06388330e-07       2.47275819e-07 
      -2.78399654e-08       3.06388335e-07       2.47275817e-07 
       2.96353697e-09       3.06388339e-07       2.47275828e-07 
       2.78240182e-08       3.06388333e-07       2.47275830e-07 
      -2.97948421e-09       3.06388330e-07       2.47275819e-07 
      -2.78399654e-08       3.06388335e-07       2.47275817e-07 
       2.96353697e-09       3.06388339e-07       2.47275828e-07 
       2.85830528e-08       3.28131033e-07       2.64823639e-07 
      -3.06070991e-09       3.28131029e-07       2.64823628e-07 
      -2.85993376e-08       3.28131035e-07       2.64823626e-07 
       3.04442516e-09       3.28131038e-07       2.64823637e-07 
       2.85830528e-08       3.28131033e-07       2.64823639e-07 
      -3.06070991e-09       3.28131029e-07       2.64823628e-07 
      -2.85993376e-08       3.28131035e-07       2.64823626e-07 
       3.04442516e-09       3.28131038e-07       2.64823637e-07 
       2.93210314e-08       3.50450701e-07       2.82837100e-07 
      -3.13968718e-09       3.50450697e-07       2.82837089e-07 
      -2.93376528e-08       3.50450703e-07       2.82837086e-07 
       3.12306625e-09       3.50450706e-07       2.82837098e-07 
       2.93210314e-08       3.50450701e-07       2.82837100e-07 
      -3.13968718e-09       3.50450697e-07       2.82837089e-07 
      -2.93376528e-08       3.50450703e-07       2.82837086e-07 
       3.12306625e-09       3.50450706e-07       2.82837098e-07 
       3.00379526e-08       3.73331110e-07       3.01303117e-07 
      -3.21641735e-09       3.73331107e-07       3.01303105e-07 
      -3.00549119e-08       3.73331112e-07       3.01303103e-07 
       3.19945803e-09       3.73331116e-07       3.01303115e-07 
       3.00379526e-08       3.73331110e-07       3.01303117e-07 
      -3.21641735e-09       3.73331107e-07       3.01303105e-07 
      -3.00549119e-08       3.73331112e-07       3.01303103e-07 
       3.19945803e-09       3.73331116e-07       3.01303115e-07 
       3.07338173e-08       3.96756034e-07       3.20208593e-07 
      -3.29089911e-09       3.96756030e-07       3.20208581e-07 
      -3.07511150e-08       3.96756035e-07       3.20208578e-07 
       3.27360139e-09       3.96756039e-07       3.20208590e-07 
       3.07338168e-08       3.96756034e-07       3.20208593e-07 
      -3.29089955e-09       3.96756030e-07       3.20208581e-07 
      -3.07511150e-08       3.96756035e-07       3.20208578e-07 
       3.27360139e-09       3.96756039e-07       3.20208590e-07 
       3.14101003e-08       4.20709605e-07       3.39540723e-07 
      -3.36321149e-09       4.20709601e-07       3.39540710e-07 
      -3.14275939e-08       4.20709606e-07       3.39540708e-07 
       3.34571792e-09       4.20709610e-07       3.39540720e-07 
       3.14101003e-08       4.20709605e-07       3.39540723e-07 
      -3.36321149e-09       4.20709601e-07       3.39540710e-07 
      -3.14275939e-08       4.20709606e-07       3.39540708e-07 
       3.34571792e-09       4.20709610e-07       3.39540720e-07 
       3.20681344e-08       4.45177399e-07       3.59287865e-07 
      -3.43357565e-09       4.45177395e-07       3.59287852e-07 
      -3.20858238e-08       4.45177400e-07       3.59287849e-07 
       3.41588624e-09       4.45177405e-07       3.59287862e-07 
       3.20681344e-08       4.45177399e-07       3.59287865e-07 
      -3.43357565e-09       4.45177395e-07       3.59287852e-07 
      -3.20858238e-08       4.45177400e-07       3.59287849e-07 
       3.41588624e-09       4.45177405e-07       3.59287862e-07 
       3.27079195e-08       4.70145353e-07       3.79438669e-07 
      -3.50199159e-09       4.70145348e-07       3.79438656e-07 
      -3.27258047e-08       4.70145354e-07       3.79438653e-07 
       3.48410634e-09       4.70145358e-07       3.79438666e-07 
       3.27079195e-08       4.70145353e-07       3.79438669e-07 
      -3.50199159e-09       4.70145348e-07       3.79438656e-07 
      -3.27258047e-08       4.70145354e-07       3.79438653e-07 
       3.48410634e-09       4.70145358e-07       3.79438666e-07 
       3.33294552e-08       4.95599403e-07       3.99981785e-07 
      -3.56845931e-09       4.95599398e-07       3.99981772e-07 
      -3.33475376e-08       4.95599403e-07       3.99981769e-07 
       3.55037688e-09       4.95599408e-07       3.99981782e-07 
       3.33294552e-08       4.95599403e-07       3.99981785e-07 
      -3.56845931e-09       4.95599398e-07       3.99981772e-07 
      -3.33475376e-08       4.95599403e-07       3.99981769e-07 
       3.55037688e-09       4.95599408e-07       3.99981782e-07 
       3.39327419e-08       5.21525485e-07       4.20905863e-07 
      -3.63297881e-09       5.21525480e-07       4.20905850e-07 
      -3.39510211e-08       5.21525485e-07       4.20905847e-07 
       3.61469965e-09       5.21525490e-07       4.20905860e-07 
       3.39327419e-08       5.21525485e-07       4.20905863e-07 
      -3.63297881e-09       5.21525480e-07       4.20905850e-07 
      -3.39510211e-08       5.21525485e-07       4.20905847e-07 
       3.61469965e-09       5.21525490e-07       4.20905860e-07 
       3.45177793e-08       5.47909536e-07       4.42199553e-07 
      -3.69555053e-09       5.47909531e-07       4.42199539e-07 
      -3.45362565e-08       5.47909536e-07       4.42199536e-07 
       3.67707331e-09       5.47909541e-07       4.42199549e-07 
       3.45177793e-08       5.47909536e-07       4.42199553e-07 
      -3.69555053e-09       5.47909531e-07       4.42199539e-07 
      -3.45362565e-08       5.47909536e-07       4.42199536e-07 
       3.67707331e-09       5.47909541e-07       4.42199549e-07 
       3.50845677e-08       5.74737492e-07       4.63851503e-07 
      -3.75617359e-09       5.74737487e-07       4.63851489e-07 
      -3.51032425e-08       5.74737492e-07       4.63851486e-07 
       3.73749831e-09       5.74737497e-07       4.63851499e-07 
       3.50845677e-08       5.74737492e-07       4.63851503e-07 
      -3.75617359e-09       5.74737487e-07       4.63851489e-07 
      -3.51032425e-08       5.74737492e-07       4.63851486e-07 
       3.73749831e-09       5.74737497e-07       4.63851499e-07 
       3.56331071e-08       6.01995290e-07       4.85850364e-07 
      -3.81484799e-09       6.01995285e-07       4.85850350e-07 
      -3.56519800e-08       6.01995290e-07       4.85850347e-07 
       3.79597598e-09       6.01995295e-07       4.85850360e-07 
       3.56331071e-08       6.01995290e-07       4.85850364e-07 
      -3.81484799e-09       6.01995285e-07       4.85850350e-07 