# vtk DataFile Version 2.0
./output/onsasExample_nonLinearCantileverBlade_staitc3D_no_pitch numElements=10/onsasExample_nonLinearCantileverBlade_staitc3D_no_pitch numElements=10_0002.vtk
ASCII
DATASET UNSTRUCTURED_GRID

POINTS 800 float
       1.731133e-26      -7.180703e-02      -7.180703e-02 
      -8.538061e-27       7.180703e-02      -7.180703e-02 
      -1.731133e-26       7.180703e-02       7.180703e-02 
       8.538061e-27      -7.180703e-02       7.180703e-02 
       1.000000e-01      -7.180703e-02      -7.180703e-02 
       1.000000e-01       7.180703e-02      -7.180703e-02 
       1.000000e-01       7.180703e-02       7.180703e-02 
       1.000000e-01      -7.180703e-02       7.180703e-02 
       1.000000e-01      -7.180703e-02      -7.180703e-02 
       1.000000e-01       7.180703e-02      -7.180703e-02 
       1.000000e-01       7.180703e-02       7.180703e-02 
       1.000000e-01      -7.180703e-02       7.180703e-02 
       2.000000e-01      -7.180703e-02      -7.180703e-02 
       2.000000e-01       7.180703e-02      -7.180703e-02 
       2.000000e-01       7.180703e-02       7.180703e-02 
       2.000000e-01      -7.180703e-02       7.180703e-02 
       2.000000e-01      -7.180703e-02      -7.180703e-02 
       2.000000e-01       7.180703e-02      -7.180703e-02 
       2.000000e-01       7.180703e-02       7.180703e-02 
       2.000000e-01      -7.180703e-02       7.180703e-02 
       3.000000e-01      -7.180703e-02      -7.180703e-02 
       3.000000e-01       7.180703e-02      -7.180703e-02 
       3.000000e-01       7.180703e-02       7.180703e-02 
       3.000000e-01      -7.180703e-02       7.180703e-02 
       3.000000e-01      -7.180703e-02      -7.180703e-02 
       3.000000e-01       7.180703e-02      -7.180703e-02 
       3.000000e-01       7.180703e-02       7.180703e-02 
       3.000000e-01      -7.180703e-02       7.180703e-02 
       4.000000e-01      -7.180703e-02      -7.180703e-02 
       4.000000e-01       7.180703e-02      -7.180703e-02 
       4.000000e-01       7.180703e-02       7.180703e-02 
       4.000000e-01      -7.180703e-02       7.180703e-02 
       4.000000e-01      -7.180703e-02      -7.180703e-02 
       4.000000e-01       7.180703e-02      -7.180703e-02 
       4.000000e-01       7.180703e-02       7.180703e-02 
       4.000000e-01      -7.180703e-02       7.180703e-02 
       5.000000e-01      -7.180703e-02      -7.180703e-02 
       5.000000e-01       7.180703e-02      -7.180703e-02 
       5.000000e-01       7.180703e-02       7.180703e-02 
       5.000000e-01      -7.180703e-02       7.180703e-02 
       5.000000e-01      -7.180703e-02      -7.180703e-02 
       5.000000e-01       7.180703e-02      -7.180703e-02 
       5.000000e-01       7.180703e-02       7.180703e-02 
       5.000000e-01      -7.180703e-02       7.180703e-02 
       6.000000e-01      -7.180703e-02      -7.180703e-02 
       6.000000e-01       7.180703e-02      -7.180703e-02 
       6.000000e-01       7.180703e-02       7.180703e-02 
       6.000000e-01      -7.180703e-02       7.180703e-02 
       6.000000e-01      -7.180703e-02      -7.180703e-02 
       6.000000e-01       7.180703e-02      -7.180703e-02 
       6.000000e-01       7.180703e-02       7.180703e-02 
       6.000000e-01      -7.180703e-02       7.180703e-02 
       7.000000e-01      -7.180703e-02      -7.180703e-02 
       7.000000e-01       7.180703e-02      -7.180703e-02 
       7.000000e-01       7.180703e-02       7.180703e-02 
       7.000000e-01      -7.180703e-02       7.180703e-02 
       7.000000e-01      -7.180703e-02      -7.180703e-02 
       7.000000e-01       7.180703e-02      -7.180703e-02 
       7.000000e-01       7.180703e-02       7.180703e-02 
       7.000000e-01      -7.180703e-02       7.180703e-02 
       8.000000e-01      -7.180703e-02      -7.180703e-02 
       8.000000e-01       7.180703e-02      -7.180703e-02 
       8.000000e-01       7.180703e-02       7.180703e-02 
       8.000000e-01      -7.180703e-02       7.180703e-02 
       8.000000e-01      -7.180703e-02      -7.180703e-02 
       8.000000e-01       7.180703e-02      -7.180703e-02 
       8.000000e-01       7.180703e-02       7.180703e-02 
       8.000000e-01      -7.180703e-02       7.180703e-02 
       9.000000e-01      -7.180703e-02      -7.180703e-02 
       9.000000e-01       7.180703e-02      -7.180703e-02 
       9.000000e-01       7.180703e-02       7.180703e-02 
       9.000000e-01      -7.180703e-02       7.180703e-02 
       9.000000e-01      -7.180703e-02      -7.180703e-02 
       9.000000e-01       7.180703e-02      -7.180703e-02 
       9.000000e-01       7.180703e-02       7.180703e-02 
       9.000000e-01      -7.180703e-02       7.180703e-02 
       1.000000e+00      -7.180703e-02      -7.180703e-02 
       1.000000e+00       7.180703e-02      -7.180703e-02 
       1.000000e+00       7.180703e-02       7.180703e-02 
       1.000000e+00      -7.180703e-02       7.180703e-02 
       1.000000e+00      -7.180703e-02      -7.180703e-02 
       1.000000e+00       7.180703e-02      -7.180703e-02 
       1.000000e+00       7.180703e-02       7.180703e-02 
       1.000000e+00      -7.180703e-02       7.180703e-02 
       1.100000e+00      -7.180703e-02      -7.180703e-02 
       1.100000e+00       7.180703e-02      -7.180703e-02 
       1.100000e+00       7.180703e-02       7.180704e-02 
       1.100000e+00      -7.180703e-02       7.180704e-02 
       1.100000e+00      -7.180703e-02      -7.180703e-02 
       1.100000e+00       7.180703e-02      -7.180703e-02 
       1.100000e+00       7.180703e-02       7.180704e-02 
       1.100000e+00      -7.180703e-02       7.180704e-02 
       1.200000e+00      -7.180703e-02      -7.180703e-02 
       1.200000e+00       7.180703e-02      -7.180703e-02 
       1.200000e+00       7.180703e-02       7.180704e-02 
       1.200000e+00      -7.180703e-02       7.180704e-02 
       1.200000e+00      -7.180703e-02      -7.180703e-02 
       1.200000e+00       7.180703e-02      -7.180703e-02 
       1.200000e+00       7.180703e-02       7.180704e-02 
       1.200000e+00      -7.180703e-02       7.180704e-02 
       1.300000e+00      -7.180703e-02      -7.180703e-02 
       1.300000e+00       7.180703e-02      -7.180703e-02 
       1.300000e+00       7.180703e-02       7.180704e-02 
       1.300000e+00      -7.180703e-02       7.180704e-02 
       1.300000e+00      -7.180703e-02      -7.180703e-02 
       1.300000e+00       7.180703e-02      -7.180703e-02 
       1.300000e+00       7.180703e-02       7.180704e-02 
       1.300000e+00      -7.180703e-02       7.180704e-02 
       1.400000e+00      -7.180703e-02      -7.180703e-02 
       1.400000e+00       7.180703e-02      -7.180703e-02 
       1.400000e+00       7.180703e-02       7.180704e-02 
       1.400000e+00      -7.180703e-02       7.180704e-02 
       1.400000e+00      -7.180703e-02      -7.180703e-02 
       1.400000e+00       7.180703e-02      -7.180703e-02 
       1.400000e+00       7.180703e-02       7.180704e-02 
       1.400000e+00      -7.180703e-02       7.180704e-02 
       1.500000e+00      -7.180703e-02      -7.180703e-02 
       1.500000e+00       7.180703e-02      -7.180703e-02 
       1.500000e+00       7.180703e-02       7.180704e-02 
       1.500000e+00      -7.180703e-02       7.180704e-02 
       1.500000e+00      -7.180703e-02      -7.180703e-02 
       1.500000e+00       7.180703e-02      -7.180703e-02 
       1.500000e+00       7.180703e-02       7.180704e-02 
       1.500000e+00      -7.180703e-02       7.180704e-02 
       1.600000e+00      -7.180703e-02      -7.180703e-02 
       1.600000e+00       7.180703e-02      -7.180703e-02 
       1.600000e+00       7.180703e-02       7.180704e-02 
       1.600000e+00      -7.180703e-02       7.180704e-02 
       1.600000e+00      -7.180703e-02      -7.180703e-02 
       1.600000e+00       7.180703e-02      -7.180703e-02 
       1.600000e+00       7.180703e-02       7.180704e-02 
       1.600000e+00      -7.180703e-02       7.180704e-02 
       1.700000e+00      -7.180703e-02      -7.180703e-02 
       1.700000e+00       7.180703e-02      -7.180703e-02 
       1.700000e+00       7.180703e-02       7.180704e-02 
       1.700000e+00      -7.180703e-02       7.180704e-02 
       1.700000e+00      -7.180703e-02      -7.180703e-02 
       1.700000e+00       7.180703e-02      -7.180703e-02 
       1.700000e+00       7.180703e-02       7.180704e-02 
       1.700000e+00      -7.180703e-02       7.180704e-02 
       1.800000e+00      -7.180703e-02      -7.180703e-02 
       1.800000e+00       7.180703e-02      -7.180703e-02 
       1.800000e+00       7.180703e-02       7.180704e-02 
       1.800000e+00      -7.180703e-02       7.180704e-02 
       1.800000e+00      -7.180703e-02      -7.180703e-02 
       1.800000e+00       7.180703e-02      -7.180703e-02 
       1.800000e+00       7.180703e-02       7.180704e-02 
       1.800000e+00      -7.180703e-02       7.180704e-02 
       1.900000e+00      -7.180703e-02      -7.180703e-02 
       1.900000e+00       7.180703e-02      -7.180703e-02 
       1.900000e+00       7.180703e-02       7.180704e-02 
       1.900000e+00      -7.180703e-02       7.180704e-02 
       1.900000e+00      -7.180703e-02      -7.180703e-02 
       1.900000e+00       7.180703e-02      -7.180703e-02 
       1.900000e+00       7.180703e-02       7.180704e-02 
       1.900000e+00      -7.180703e-02       7.180704e-02 
       2.000000e+00      -7.180703e-02      -7.180703e-02 
       2.000000e+00       7.180703e-02      -7.180703e-02 
       2.000000e+00       7.180703e-02       7.180704e-02 
       2.000000e+00      -7.180703e-02       7.180704e-02 
       2.000000e+00      -7.180703e-02      -7.180703e-02 
       2.000000e+00       7.180703e-02      -7.180703e-02 
       2.000000e+00       7.180703e-02       7.180704e-02 
       2.000000e+00      -7.180703e-02       7.180704e-02 
       2.100000e+00      -7.180703e-02      -7.180703e-02 
[...]
POINT_DATA       800 
VECTORS Displacements float
       1.73113327e-26       0.00000000e+00       0.00000000e+00 
      -8.53806141e-27       0.00000000e+00       0.00000000e+00 
      -1.73113327e-26       0.00000000e+00       0.00000000e+00 
       8.53806141e-27       0.00000000e+00       0.00000000e+00 
       2.77430162e-11       7.61335439e-14       1.93034894e-11 
       2.75250517e-11       7.61335439e-14       1.93034894e-11 
      -2.77430162e-11       7.61335439e-14       1.93034894e-11 
      -2.75250517e-11       7.61335439e-14       1.93034894e-11 
       2.77430162e-11       7.61335439e-14       1.93034894e-11 
       2.75250517e-11       7.61335439e-14       1.93034894e-11 
      -2.77430162e-11       7.61335439e-14       1.93034894e-11 
      -2.75250517e-11       7.61335439e-14       1.93034894e-11 
       5.49529311e-11       3.02577408e-13       7.67209907e-11 
       5.45212209e-11       3.02577408e-13       7.67209907e-11 
      -5.49529311e-11       3.02577408e-13       7.67209907e-11 
      -5.45212209e-11       3.02577408e-13       7.67209907e-11 
       5.49529311e-11       3.02577408e-13       7.67209907e-11 
       5.45212209e-11       3.02577408e-13       7.67209907e-11 
      -5.49529311e-11       3.02577408e-13       7.67209907e-11 
      -5.45212209e-11       3.02577408e-13       7.67209907e-11 
       8.16298140e-11       6.76403378e-13       1.71513054e-10 
       8.09884937e-11       6.76403378e-13       1.71513054e-10 
      -8.16298140e-11       6.76403378e-13       1.71513054e-10 
      -8.09884937e-11       6.76403378e-13       1.71513054e-10 
       8.16298140e-11       6.76403378e-13       1.71513054e-10 
       8.09884937e-11       6.76403378e-13       1.71513054e-10 
      -8.16298140e-11       6.76403378e-13       1.71513054e-10 
      -8.09884937e-11       6.76403378e-13       1.71513054e-10 
       1.07773623e-10       1.19471100e-12       3.02940228e-10 
       1.06926912e-10       1.19471100e-12       3.02940228e-10 
      -1.07773623e-10       1.19471100e-12       3.02940228e-10 
      -1.06926912e-10       1.19471100e-12       3.02940228e-10 
       1.07773623e-10       1.19471100e-12       3.02940228e-10 
       1.06926912e-10       1.19471100e-12       3.02940228e-10 
      -1.07773623e-10       1.19471100e-12       3.02940228e-10 
      -1.06926912e-10       1.19471100e-12       3.02940228e-10 
       1.33384304e-10       1.85458593e-12       4.70263092e-10 
       1.32336364e-10       1.85458593e-12       4.70263092e-10 
      -1.33384359e-10       1.85458593e-12       4.70263092e-10 
      -1.32336420e-10       1.85458593e-12       4.70263092e-10 
       1.33384304e-10       1.85458593e-12       4.70263092e-10 
       1.32336364e-10       1.85458593e-12       4.70263092e-10 
      -1.33384359e-10       1.85458593e-12       4.70263092e-10 
      -1.32336420e-10       1.85458593e-12       4.70263092e-10 
       1.58462021e-10       2.65311384e-12       6.72742154e-10 
       1.57217017e-10       2.65311384e-12       6.72742154e-10 
      -1.58462021e-10       2.65311384e-12       6.72742154e-10 
      -1.57217017e-10       2.65311384e-12       6.72742154e-10 
       1.58462021e-10       2.65311384e-12       6.72742154e-10 
       1.57217017e-10       2.65311384e-12       6.72742154e-10 
      -1.58462021e-10       2.65311384e-12       6.72742154e-10 
      -1.57217017e-10       2.65311384e-12       6.72742154e-10 
       1.83006610e-10       3.58735264e-12       9.09637990e-10 
       1.81568760e-10       3.58735264e-12       9.09637990e-10 
      -1.83006610e-10       3.58735264e-12       9.09637990e-10 
      -1.81568760e-10       3.58735264e-12       9.09637990e-10 
       1.83006610e-10       3.58735264e-12       9.09637990e-10 
       1.81568760e-10       3.58735264e-12       9.09637990e-10 
      -1.83006610e-10       3.58735264e-12       9.09637990e-10 
      -1.81568760e-10       3.58735264e-12       9.09637990e-10 
       2.07018069e-10       4.65442962e-12       1.18021115e-09 
       2.05391593e-10       4.65442962e-12       1.18021115e-09 
      -2.07018069e-10       4.65442962e-12       1.18021115e-09 
      -2.05391593e-10       4.65442962e-12       1.18021115e-09 
       2.07018069e-10       4.65442962e-12       1.18021115e-09 
       2.05391593e-10       4.65442962e-12       1.18021115e-09 
      -2.07018069e-10       4.65442962e-12       1.18021115e-09 
      -2.05391593e-10       4.65442962e-12       1.18021115e-09 
       2.30496511e-10       5.85138882e-12       1.48372219e-09 
       2.28685626e-10       5.85138882e-12       1.48372219e-09 
      -2.30496511e-10       5.85138882e-12       1.48372219e-09 
      -2.28685626e-10       5.85138882e-12       1.48372219e-09 
       2.30496511e-10       5.85138882e-12       1.48372219e-09 
       2.28685626e-10       5.85138882e-12       1.48372219e-09 
      -2.30496511e-10       5.85138882e-12       1.48372219e-09 
      -2.28685626e-10       5.85138882e-12       1.48372219e-09 
       2.53441712e-10       7.17534365e-12       1.81943166e-09 
       2.51450860e-10       7.17534365e-12       1.81943166e-09 
      -2.53441934e-10       7.17534365e-12       1.81943166e-09 
      -2.51450749e-10       7.17534365e-12       1.81943166e-09 
       2.53441934e-10       7.17534365e-12       1.81943166e-09 
       2.51450860e-10       7.17534365e-12       1.81943166e-09 
      -2.53441934e-10       7.17534365e-12       1.81943166e-09 
      -2.51450749e-10       7.17534365e-12       1.81943166e-09 
       2.75882206e-10       8.62340754e-12       2.18661309e-09 
       2.73714829e-10       8.62340754e-12       2.18661309e-09 
      -2.75882428e-10       8.62340754e-12       2.18661309e-09 
      -2.73715051e-10       8.62340754e-12       2.18661309e-09 
       2.75882206e-10       8.62340754e-12       2.18661309e-09 
       2.73714829e-10       8.62340754e-12       2.18661309e-09 
      -2.75882428e-10       8.62340754e-12       2.18661309e-09 
      -2.73715051e-10       8.62340754e-12       2.18661309e-09 
       2.97845748e-10       1.01929298e-11       2.58459186e-09 
       2.95505842e-10       1.01929298e-11       2.58459186e-09 
      -2.97845748e-10       1.01929298e-11       2.58459186e-09 
      -2.95505620e-10       1.01929298e-11       2.58459186e-09 
       2.97845748e-10       1.01929298e-11       2.58459186e-09 
       2.95505842e-10       1.01929298e-11       2.58459186e-09 
      -2.97845748e-10       1.01929298e-11       2.58459186e-09 
      -2.95505620e-10       1.01929298e-11       2.58459186e-09 
       3.19332338e-10       1.18812876e-11       3.01270640e-09 
       3.16823234e-10       1.18812876e-11       3.01270640e-09 
      -3.19332338e-10       1.18812876e-11       3.01270640e-09 
      -3.16823234e-10       1.18812876e-11       3.01270640e-09 
       3.19332338e-10       1.18812876e-11       3.01270640e-09 
       3.16823234e-10       1.18812876e-11       3.01270640e-09 
      -3.19332338e-10       1.18812876e-11       3.01270640e-09 
      -3.16823234e-10       1.18812876e-11       3.01270640e-09 
       3.40341755e-10       1.36858858e-11       3.47029508e-09 
       3.37667894e-10       1.36858858e-11       3.47029508e-09 
      -3.40341533e-10       1.36858858e-11       3.47029508e-09 
      -3.37667672e-10       1.36858858e-11       3.47029508e-09 
       3.40341755e-10       1.36858858e-11       3.47029508e-09 
       3.37667894e-10       1.36858858e-11       3.47029508e-09 
      -3.40341533e-10       1.36858858e-11       3.47029508e-09 
      -3.37667672e-10       1.36858858e-11       3.47029508e-09 
       3.60874219e-10       1.56041291e-11       3.95669629e-09 
       3.58039154e-10       1.56041291e-11       3.95669629e-09 
      -3.60874219e-10       1.56041291e-11       3.95669629e-09 
      -3.58038932e-10       1.56041291e-11       3.95669629e-09 
       3.60874219e-10       1.56041291e-11       3.95669629e-09 
       3.58039154e-10       1.56041291e-11       3.95669629e-09 
      -3.60874219e-10       1.56041291e-11       3.95669629e-09 
      -3.58038932e-10       1.56041291e-11       3.95669629e-09 
       3.80929732e-10       1.76333670e-11       4.47124844e-09 
       3.77937015e-10       1.76333670e-11       4.47124844e-09 
      -3.80929954e-10       1.76333670e-11       4.47124844e-09 
      -3.77937237e-10       1.76333670e-11       4.47124844e-09 
       3.80929732e-10       1.76333670e-11       4.47124844e-09 
       3.77937015e-10       1.76333670e-11       4.47124844e-09 
      -3.80929954e-10       1.76333670e-11       4.47124844e-09 
      -3.77937237e-10       1.76333670e-11       4.47124844e-09 
       4.00508293e-10       1.97710320e-11       5.01328988e-09 
       3.97361921e-10       1.97710320e-11       5.01328988e-09 
      -4.00508293e-10       1.97710320e-11       5.01328988e-09 
      -3.97361921e-10       1.97710320e-11       5.01328988e-09 
       4.00508293e-10       1.97710320e-11       5.01328988e-09 
       3.97361921e-10       1.97710320e-11       5.01328988e-09 
      -4.00508293e-10       1.97710320e-11       5.01328988e-09 
      -3.97361921e-10       1.97710320e-11       5.01328988e-09 
       4.19610124e-10       2.20145013e-11       5.58215903e-09 
       4.16313428e-10       2.20145013e-11       5.58215903e-09 
      -4.19610124e-10       2.20145013e-11       5.58215903e-09 
      -4.16313428e-10       2.20145013e-11       5.58215903e-09 
       4.19610124e-10       2.20145013e-11       5.58215903e-09 
       4.16313428e-10       2.20145013e-11       5.58215903e-09 
      -4.19610124e-10       2.20145013e-11       5.58215903e-09 
      -4.16313428e-10       2.20145013e-11       5.58215903e-09 
       4.38234782e-10       2.43611659e-11       6.17719426e-09 
       4.34791980e-10       2.43611659e-11       6.17719426e-09 
      -4.38234782e-10       2.43611659e-11       6.17719426e-09 
      -4.34791758e-10       2.43611659e-11       6.17719426e-09 
       4.38234782e-10       2.43611659e-11       6.17719426e-09 
       4.34791980e-10       2.43611659e-11       6.17719426e-09 
      -4.38234782e-10       2.43611659e-11       6.17719426e-09 
      -4.34791758e-10       2.43611659e-11       6.17719426e-09 
       4.56382487e-10       2.68084027e-11       6.79773396e-09 
       4.52796911e-10       2.68084027e-11       6.79773396e-09 
      -4.56382487e-10       2.68084027e-11       6.79773396e-09 
      -4.52797133e-10       2.68084027e-11       6.79773396e-09 
       4.56382487e-10       2.68083888e-11       6.79773396e-09 
       4.52796911e-10       2.68083888e-11       6.79773396e-09 
      -4.56382487e-10       2.68083888e-11       6.79773396e-09 
      -4.52796911e-10       2.68083888e-11       6.79773396e-09 
       4.74081219e-10       2.93536445e-11       7.44312950e-09 
       4.70356643e-10       2.93536445e-11       7.44312950e-09 
      -4.74081663e-10       2.93536445e-11       7.44312950e-09 
      -4.70357087e-10       2.93536445e-11       7.44312950e-09 
       4.74081219e-10       2.93536445e-11       7.44312950e-09 
       4.70356643e-10       2.93536445e-11       7.44312950e-09 
      -4.74081663e-10       2.93536445e-11       7.44312950e-09 
      -4.70357087e-10       2.93536445e-11       7.44312950e-09 
       4.91359398e-10       3.19945875e-11       8.11278413e-09 
       4.87498930e-10       3.19945875e-11       8.11278413e-09 
      -4.91359398e-10       3.19945875e-11       8.11278413e-09 
      -4.87499374e-10       3.19945875e-11       8.11278413e-09 
       4.91359398e-10       3.19945875e-11       8.11278413e-09 
       4.87498930e-10       3.19945875e-11       8.11278413e-09 
      -4.91359398e-10       3.19945875e-11       8.11278413e-09 
      -4.87499374e-10       3.19945875e-11       8.11278413e-09 
       5.08216580e-10       3.47288864e-11       8.80611407e-09 
       5.04224218e-10       3.47288864e-11       8.80611407e-09 
      -5.08216580e-10       3.47288864e-11       8.80611407e-09 
      -5.04223774e-10       3.47288864e-11       8.80611407e-09 
       5.08216580e-10       3.47288864e-11       8.80611407e-09 
       5.04224218e-10       3.47288864e-11       8.80611407e-09 
      -5.08216580e-10       3.47288864e-11       8.80611407e-09 
      -5.04223774e-10       3.47288864e-11       8.80611407e-09 
       5.24652766e-10       3.75542514e-11       9.52253555e-09 
       5.20531174e-10       3.75542514e-11       9.52253555e-09 
      -5.24652766e-10       3.75542514e-11       9.52253555e-09 
      -5.20530730e-10       3.75542514e-11       9.52253555e-09 
       5.24652766e-10       3.75542514e-11       9.52253555e-09 
       5.20531174e-10       3.75542514e-11       9.52253555e-09 
      -5.24652766e-10       3.75542514e-11       9.52253555e-09 
      -5.20530730e-10       3.75542514e-11       9.52253555e-09 
       5.40668399e-10       4.04683925e-11       1.02614648e-08 
       5.36420686e-10       4.04683925e-11       1.02614648e-08 
      -5.40668399e-10       4.04683925e-11       1.02614648e-08 
      -5.36420686e-10       4.04683925e-11       1.02614648e-08 
       5.40668399e-10       4.04683925e-11       1.02614648e-08 
       5.36420686e-10       4.04683925e-11       1.02614648e-08 
      -5.40668399e-10       4.04683925e-11       1.02614648e-08 
      -5.36420686e-10       4.04683925e-11       1.02614648e-08 
       5.56263036e-10       4.34689923e-11       1.10223181e-08 
       5.51892754e-10       4.34689923e-11       1.10223181e-08 
      -5.56263036e-10       4.34689923e-11       1.10223181e-08 
      -5.51893198e-10       4.34689923e-11       1.10223181e-08 
       5.56263036e-10       4.34689923e-11       1.10223181e-08 
       5.51892754e-10       4.34689923e-11       1.10223181e-08 
      -5.56263036e-10       4.34689923e-11       1.10223181e-08 
      -5.51893198e-10       4.34689923e-11       1.10223181e-08 
       5.71436676e-10       4.65537470e-11       1.18045115e-08 
       5.66947378e-10       4.65537470e-11       1.18045115e-08 
      -5.71437120e-10       4.65537470e-11       1.18045115e-08 
      -5.66947378e-10       4.65537470e-11       1.18045115e-08 
       5.71436676e-10       4.65537470e-11       1.18045115e-08 
       5.66947378e-10       4.65537470e-11       1.18045115e-08 
      -5.71437120e-10       4.65537470e-11       1.18045115e-08 
      -5.66947378e-10       4.65537470e-11       1.18045115e-08 
       5.86189763e-10       4.97203528e-11       1.26074614e-08 
       5.81584558e-10       4.97203528e-11       1.26074614e-08 
      -5.86189763e-10       4.97203528e-11       1.26074614e-08 
      -5.81584114e-10       4.97203528e-11       1.26074614e-08 
       5.86189763e-10       4.97203528e-11       1.26074614e-08 
       5.81584558e-10       4.97203528e-11       1.26074614e-08 
      -5.86189763e-10       4.97203528e-11       1.26074614e-08 
      -5.81584114e-10       4.97203528e-11       1.26074614e-08 
       6.00521854e-10       5.29665201e-11       1.34305840e-08 
       5.95803851e-10       5.29665201e-11       1.34305840e-08 
      -6.00521854e-10       5.29665201e-11       1.34305840e-08 
      -5.95803851e-10       5.29665201e-11       1.34305840e-08 
       6.00521854e-10       5.29665201e-11       1.34305840e-08 
       5.95803851e-10       5.29665201e-11       1.34305840e-08 
      -6.00521854e-10       5.29665201e-11       1.34305840e-08 
      -5.95803851e-10       5.29665201e-11       1.34305840e-08 
       6.14432949e-10       5.62899449e-11       1.42732954e-08 
       6.09605699e-10       5.62899449e-11       1.42732954e-08 
      -6.14432949e-10       5.62899449e-11       1.42732954e-08 
      -6.09605699e-10       5.62899449e-11       1.42732954e-08 
       6.14432949e-10       5.62899449e-11       1.42732954e-08 
       6.09605699e-10       5.62899449e-11       1.42732954e-08 
      -6.14432949e-10       5.62899449e-11       1.42732954e-08 
      -6.09605699e-10       5.62899449e-11       1.42732954e-08 
       6.27951469e-10       5.96883654e-11       1.51350249e-08 
       6.23018082e-10       5.96883654e-11       1.51350249e-08 
      -6.27951469e-10       5.96883654e-11       1.51350249e-08 
      -6.23018082e-10       5.96883654e-11       1.51350249e-08 
       6.27951469e-10       5.96883654e-11       1.51350249e-08 
       6.23018082e-10       5.96883654e-11       1.51350249e-08 
      -6.27951469e-10       5.96883654e-11       1.51350249e-08 
      -6.23018082e-10       5.96883654e-11       1.51350249e-08 
       6.41104947e-10       6.31597552e-11       1.60152536e-08 
       6.36068531e-10       6.31597552e-11       1.60152536e-08 
      -6.41105391e-10       6.31597552e-11       1.60152536e-08 
      -6.36068531e-10       6.31597552e-11       1.60152536e-08 
       6.41104947e-10       6.31597552e-11       1.60152536e-08 
       6.36068531e-10       6.31597552e-11       1.60152536e-08 
      -6.41105391e-10       6.31597552e-11       1.60152536e-08 
      -6.36068531e-10       6.31597552e-11       1.60152536e-08 
       6.53894716e-10       6.67020883e-11       1.69134756e-08 
       6.48757048e-10       6.67020883e-11       1.69134756e-08 
      -6.53894272e-10       6.67020883e-11       1.69134756e-08 
      -6.48756604e-10       6.67020883e-11       1.69134756e-08 
       6.53894716e-10       6.67020883e-11       1.69134756e-08 
       6.48757048e-10       6.67020883e-11       1.69134756e-08 
      -6.53894272e-10       6.67020883e-11       1.69134756e-08 
      -6.48756604e-10       6.67020883e-11       1.69134756e-08 
       6.66318556e-10       7.03133940e-11       1.78291848e-08 
       6.61083632e-10       7.03133940e-11       1.78291848e-08 
      -6.66318556e-10       7.03133940e-11       1.78291848e-08 
      -6.61083632e-10       7.03133940e-11       1.78291848e-08 
       6.66318556e-10       7.03133940e-11       1.78291848e-08 
       6.61083632e-10       7.03133940e-11       1.78291848e-08 
      -6.66318556e-10       7.03133940e-11       1.78291848e-08 
      -6.61083632e-10       7.03133940e-11       1.78291848e-08 
       6.78378242e-10       7.39916600e-11       1.87618754e-08 
       6.73048284e-10       7.39916600e-11       1.87618754e-08 
      -6.78378242e-10       7.39916600e-11       1.87618754e-08 
      -6.73048284e-10       7.39916600e-11       1.87618754e-08 
       6.78378242e-10       7.39916600e-11       1.87618754e-08 
       6.73048284e-10       7.39916600e-11       1.87618754e-08 
      -6.78378242e-10       7.39916600e-11       1.87618754e-08 
      -6.73048284e-10       7.39916600e-11       1.87618754e-08 
       6.90072888e-10       7.77349157e-11       1.97110415e-08 
       6.84651003e-10       7.77349157e-11       1.97110415e-08 
      -6.90072888e-10       7.77349157e-11       1.97110415e-08 
      -6.84651447e-10       7.77349157e-11       1.97110415e-08 
       6.90072888e-10       7.77349157e-11       1.97110415e-08 
       6.84651003e-10       7.77349157e-11       1.97110415e-08 
      -6.90072888e-10       7.77349157e-11       1.97110415e-08 
      -6.84651447e-10       7.77349157e-11       1.97110415e-08 
       7.01402492e-10       8.15411350e-11       2.06761770e-08 
       6.95892233e-10       8.15411350e-11       2.06761770e-08 
      -7.01403380e-10       8.15411350e-11       2.06761770e-08 
      -6.95892677e-10       8.15411350e-11       2.06761770e-08 
       7.01402492e-10       8.15411350e-11       2.06761770e-08 
       6.95892233e-10       8.15411350e-11       2.06761770e-08 
      -7.01403380e-10       8.15411350e-11       2.06761770e-08 
      -6.95892677e-10       8.15411350e-11       2.06761770e-08 
       7.12368387e-10       8.54083609e-11       2.16567761e-08 
       7.06771530e-10       8.54083609e-11       2.16567761e-08 
      -7.12367942e-10       8.54083609e-11       2.16567761e-08 
      -7.06771530e-10       8.54083609e-11       2.16567761e-08 
       7.12368387e-10       8.54083609e-11       2.16567761e-08 
       7.06771530e-10       8.54083609e-11       2.16567761e-08 