# vtk DataFile Version 2.0
./output/onsasExample_nonLinearCantileverBlade_staitc3D_no_pitch numElements=10/onsasExample_nonLinearCantileverBlade_staitc3D_no_pitch numElements=10_0030.vtk
ASCII
DATASET UNSTRUCTURED_GRID

POINTS 800 float
       1.696597e-24      -7.180703e-02      -7.180703e-02 
      -2.951519e-24       7.180703e-02      -7.180703e-02 
      -1.696597e-24       7.180703e-02       7.180703e-02 
       2.951519e-24      -7.180703e-02       7.180703e-02 
       1.000000e-01      -7.180703e-02      -7.180703e-02 
       1.000000e-01       7.180703e-02      -7.180703e-02 
       1.000000e-01       7.180703e-02       7.180703e-02 
       1.000000e-01      -7.180703e-02       7.180703e-02 
       1.000000e-01      -7.180703e-02      -7.180703e-02 
       1.000000e-01       7.180703e-02      -7.180703e-02 
       1.000000e-01       7.180703e-02       7.180703e-02 
       1.000000e-01      -7.180703e-02       7.180703e-02 
       2.000000e-01      -7.180703e-02      -7.180704e-02 
       2.000000e-01       7.180704e-02      -7.180704e-02 
       2.000000e-01       7.180704e-02       7.180703e-02 
       2.000000e-01      -7.180703e-02       7.180703e-02 
       2.000000e-01      -7.180703e-02      -7.180704e-02 
       2.000000e-01       7.180704e-02      -7.180704e-02 
       2.000000e-01       7.180704e-02       7.180703e-02 
       2.000000e-01      -7.180703e-02       7.180703e-02 
       3.000000e-01      -7.180703e-02      -7.180705e-02 
       3.000000e-01       7.180704e-02      -7.180705e-02 
       3.000000e-01       7.180704e-02       7.180702e-02 
       3.000000e-01      -7.180703e-02       7.180702e-02 
       3.000000e-01      -7.180703e-02      -7.180705e-02 
       3.000000e-01       7.180704e-02      -7.180705e-02 
       3.000000e-01       7.180704e-02       7.180702e-02 
       3.000000e-01      -7.180703e-02       7.180702e-02 
       4.000000e-01      -7.180702e-02      -7.180706e-02 
       4.000000e-01       7.180705e-02      -7.180706e-02 
       4.000000e-01       7.180705e-02       7.180701e-02 
       4.000000e-01      -7.180702e-02       7.180701e-02 
       4.000000e-01      -7.180702e-02      -7.180706e-02 
       4.000000e-01       7.180705e-02      -7.180706e-02 
       4.000000e-01       7.180705e-02       7.180701e-02 
       4.000000e-01      -7.180702e-02       7.180701e-02 
       5.000000e-01      -7.180701e-02      -7.180707e-02 
       5.000000e-01       7.180705e-02      -7.180707e-02 
       5.000000e-01       7.180705e-02       7.180699e-02 
       5.000000e-01      -7.180701e-02       7.180699e-02 
       5.000000e-01      -7.180701e-02      -7.180707e-02 
       5.000000e-01       7.180705e-02      -7.180707e-02 
       5.000000e-01       7.180705e-02       7.180699e-02 
       5.000000e-01      -7.180701e-02       7.180699e-02 
       6.000000e-01      -7.180700e-02      -7.180709e-02 
       6.000000e-01       7.180706e-02      -7.180709e-02 
       6.000000e-01       7.180706e-02       7.180698e-02 
       6.000000e-01      -7.180700e-02       7.180698e-02 
       6.000000e-01      -7.180700e-02      -7.180709e-02 
       6.000000e-01       7.180706e-02      -7.180709e-02 
       6.000000e-01       7.180706e-02       7.180698e-02 
       6.000000e-01      -7.180700e-02       7.180698e-02 
       7.000000e-01      -7.180699e-02      -7.180711e-02 
       7.000000e-01       7.180707e-02      -7.180711e-02 
       7.000000e-01       7.180707e-02       7.180696e-02 
       7.000000e-01      -7.180699e-02       7.180696e-02 
       7.000000e-01      -7.180699e-02      -7.180711e-02 
       7.000000e-01       7.180707e-02      -7.180711e-02 
       7.000000e-01       7.180707e-02       7.180696e-02 
       7.000000e-01      -7.180699e-02       7.180696e-02 
       8.000000e-01      -7.180698e-02      -7.180713e-02 
       8.000000e-01       7.180709e-02      -7.180713e-02 
       8.000000e-01       7.180709e-02       7.180693e-02 
       8.000000e-01      -7.180698e-02       7.180693e-02 
       8.000000e-01      -7.180698e-02      -7.180713e-02 
       8.000000e-01       7.180709e-02      -7.180713e-02 
       8.000000e-01       7.180709e-02       7.180693e-02 
       8.000000e-01      -7.180698e-02       7.180693e-02 
       9.000000e-01      -7.180697e-02      -7.180716e-02 
       9.000000e-01       7.180710e-02      -7.180716e-02 
       9.000000e-01       7.180710e-02       7.180691e-02 
       9.000000e-01      -7.180697e-02       7.180691e-02 
       9.000000e-01      -7.180697e-02      -7.180716e-02 
       9.000000e-01       7.180710e-02      -7.180716e-02 
       9.000000e-01       7.180710e-02       7.180691e-02 
       9.000000e-01      -7.180697e-02       7.180691e-02 
       1.000000e+00      -7.180695e-02      -7.180719e-02 
       1.000000e+00       7.180711e-02      -7.180719e-02 
       1.000000e+00       7.180711e-02       7.180688e-02 
       1.000000e+00      -7.180695e-02       7.180688e-02 
       1.000000e+00      -7.180695e-02      -7.180719e-02 
       1.000000e+00       7.180711e-02      -7.180719e-02 
       1.000000e+00       7.180711e-02       7.180688e-02 
       1.000000e+00      -7.180695e-02       7.180688e-02 
       1.100000e+00      -7.180694e-02      -7.180722e-02 
       1.100000e+00       7.180713e-02      -7.180722e-02 
       1.100000e+00       7.180713e-02       7.180685e-02 
       1.100000e+00      -7.180694e-02       7.180685e-02 
       1.100000e+00      -7.180694e-02      -7.180722e-02 
       1.100000e+00       7.180713e-02      -7.180722e-02 
       1.100000e+00       7.180713e-02       7.180685e-02 
       1.100000e+00      -7.180694e-02       7.180685e-02 
       1.200000e+00      -7.180692e-02      -7.180725e-02 
       1.200000e+00       7.180715e-02      -7.180725e-02 
       1.200000e+00       7.180715e-02       7.180681e-02 
       1.200000e+00      -7.180692e-02       7.180681e-02 
       1.200000e+00      -7.180692e-02      -7.180725e-02 
       1.200000e+00       7.180715e-02      -7.180725e-02 
       1.200000e+00       7.180715e-02       7.180681e-02 
       1.200000e+00      -7.180692e-02       7.180681e-02 
       1.300000e+00      -7.180690e-02      -7.180729e-02 
       1.300000e+00       7.180717e-02      -7.180729e-02 
       1.300000e+00       7.180717e-02       7.180678e-02 
       1.300000e+00      -7.180690e-02       7.180678e-02 
       1.300000e+00      -7.180690e-02      -7.180729e-02 
       1.300000e+00       7.180717e-02      -7.180729e-02 
       1.300000e+00       7.180717e-02       7.180678e-02 
       1.300000e+00      -7.180690e-02       7.180678e-02 
       1.400000e+00      -7.180688e-02      -7.180733e-02 
       1.400000e+00       7.180719e-02      -7.180733e-02 
       1.400000e+00       7.180719e-02       7.180674e-02 
       1.400000e+00      -7.180688e-02       7.180674e-02 
       1.400000e+00      -7.180688e-02      -7.180733e-02 
       1.400000e+00       7.180719e-02      -7.180733e-02 
       1.400000e+00       7.180719e-02       7.180674e-02 
       1.400000e+00      -7.180688e-02       7.180674e-02 
       1.500000e+00      -7.180686e-02      -7.180737e-02 
       1.500000e+00       7.180721e-02      -7.180737e-02 
       1.500000e+00       7.180721e-02       7.180669e-02 
       1.500000e+00      -7.180686e-02       7.180669e-02 
       1.500000e+00      -7.180686e-02      -7.180737e-02 
       1.500000e+00       7.180721e-02      -7.180737e-02 
       1.500000e+00       7.180721e-02       7.180669e-02 
       1.500000e+00      -7.180686e-02       7.180669e-02 
       1.600000e+00      -7.180683e-02      -7.180742e-02 
       1.600000e+00       7.180723e-02      -7.180742e-02 
       1.600000e+00       7.180723e-02       7.180665e-02 
       1.600000e+00      -7.180683e-02       7.180665e-02 
       1.600000e+00      -7.180683e-02      -7.180742e-02 
       1.600000e+00       7.180723e-02      -7.180742e-02 
       1.600000e+00       7.180723e-02       7.180665e-02 
       1.600000e+00      -7.180683e-02       7.180665e-02 
       1.700000e+00      -7.180681e-02      -7.180746e-02 
       1.700000e+00       7.180726e-02      -7.180746e-02 
       1.700000e+00       7.180726e-02       7.180660e-02 
       1.700000e+00      -7.180681e-02       7.180660e-02 
       1.700000e+00      -7.180681e-02      -7.180746e-02 
       1.700000e+00       7.180726e-02      -7.180746e-02 
       1.700000e+00       7.180726e-02       7.180660e-02 
       1.700000e+00      -7.180681e-02       7.180660e-02 
       1.800000e+00      -7.180678e-02      -7.180751e-02 
       1.800000e+00       7.180728e-02      -7.180751e-02 
       1.800000e+00       7.180728e-02       7.180656e-02 
       1.800000e+00      -7.180678e-02       7.180656e-02 
       1.800000e+00      -7.180678e-02      -7.180751e-02 
       1.800000e+00       7.180728e-02      -7.180751e-02 
       1.800000e+00       7.180728e-02       7.180656e-02 
       1.800000e+00      -7.180678e-02       7.180656e-02 
       1.900000e+00      -7.180676e-02      -7.180756e-02 
       1.900000e+00       7.180731e-02      -7.180756e-02 
       1.900000e+00       7.180731e-02       7.180650e-02 
       1.900000e+00      -7.180676e-02       7.180650e-02 
       1.900000e+00      -7.180676e-02      -7.180756e-02 
       1.900000e+00       7.180731e-02      -7.180756e-02 
       1.900000e+00       7.180731e-02       7.180650e-02 
       1.900000e+00      -7.180676e-02       7.180650e-02 
       2.000000e+00      -7.180673e-02      -7.180761e-02 
       2.000000e+00       7.180734e-02      -7.180761e-02 
       2.000000e+00       7.180734e-02       7.180645e-02 
       2.000000e+00      -7.180673e-02       7.180645e-02 
       2.000000e+00      -7.180673e-02      -7.180761e-02 
       2.000000e+00       7.180734e-02      -7.180761e-02 
       2.000000e+00       7.180734e-02       7.180645e-02 
       2.000000e+00      -7.180673e-02       7.180645e-02 
       2.100000e+00      -7.180670e-02      -7.180767e-02 
[...]
POINT_DATA       800 
VECTORS Displacements float
       1.69659738e-24      -2.77555756e-17      -1.38777878e-17 
      -2.95151942e-24       0.00000000e+00      -1.38777878e-17 
      -1.69659738e-24       2.77555756e-17       1.38777878e-17 
       2.95151942e-24       0.00000000e+00       1.38777878e-17 
      -1.13414042e-09       8.60551685e-10      -1.65190747e-09 
      -3.59799260e-09       8.60551713e-10      -1.65190456e-09 
       1.13160011e-09       8.60548868e-10      -1.65190461e-09 
       3.59545228e-09       8.60548841e-10      -1.65190753e-09 
      -1.13414042e-09       8.60551685e-10      -1.65190747e-09 
      -3.59799260e-09       8.60551713e-10      -1.65190456e-09 
       1.13160011e-09       8.60548868e-10      -1.65190461e-09 
       3.59545228e-09       8.60548841e-10      -1.65190753e-09 
      -2.24651389e-09       3.42022753e-09      -6.56544123e-09 
      -7.12687639e-09       3.42022748e-09      -6.56543529e-09 
       2.24143196e-09       3.42022187e-09      -6.56543557e-09 
       7.12179446e-09       3.42022193e-09      -6.56544151e-09 
      -2.24651389e-09       3.42022753e-09      -6.56544123e-09 
      -7.12687639e-09       3.42022748e-09      -6.56543529e-09 
       2.24143196e-09       3.42022187e-09      -6.56543557e-09 
       7.12179446e-09       3.42022193e-09      -6.56544151e-09 
      -3.33712036e-09       7.64606287e-09      -1.46773226e-08 
      -1.05866514e-08       7.64606271e-09      -1.46773136e-08 
       3.32949546e-09       7.64605443e-09      -1.46773143e-08 
       1.05790265e-08       7.64605457e-09      -1.46773232e-08 
      -3.33712036e-09       7.64606287e-09      -1.46773226e-08 
      -1.05866514e-08       7.64606271e-09      -1.46773136e-08 
       3.32949546e-09       7.64605443e-09      -1.46773143e-08 
       1.05790265e-08       7.64605457e-09      -1.46773232e-08 
      -4.40595982e-09       1.35050931e-08      -2.59242729e-08 
      -1.39773175e-08       1.35050928e-08      -2.59242608e-08 
       4.39579095e-09       1.35050819e-08      -2.59242619e-08 
       1.39671487e-08       1.35050822e-08      -2.59242741e-08 
      -4.40595982e-09       1.35050931e-08      -2.59242729e-08 
      -1.39773175e-08       1.35050928e-08      -2.59242608e-08 
       4.39579095e-09       1.35050819e-08      -2.59242619e-08 
       1.39671487e-08       1.35050822e-08      -2.59242741e-08 
      -5.45303230e-09       2.09643535e-08      -4.02430136e-08 
      -1.72988749e-08       2.09643531e-08      -4.02429982e-08 
       5.44031808e-09       2.09643396e-08      -4.02430000e-08 
       1.72861606e-08       2.09643401e-08      -4.02430153e-08 
      -5.45303230e-09       2.09643535e-08      -4.02430136e-08 
      -1.72988749e-08       2.09643531e-08      -4.02429982e-08 
       5.44031808e-09       2.09643396e-08      -4.02430000e-08 
       1.72861606e-08       2.09643401e-08      -4.02430153e-08 
      -6.47833787e-09       2.99908796e-08      -5.75702659e-08 
      -2.05513234e-08       2.99908789e-08      -5.75702472e-08 
       6.46307685e-09       2.99908630e-08      -5.75702497e-08 
       2.05360624e-08       2.99908636e-08      -5.75702684e-08 
      -6.47833787e-09       2.99908796e-08      -5.75702659e-08 
      -2.05513234e-08       2.99908789e-08      -5.75702472e-08 
       6.46307685e-09       2.99908630e-08      -5.75702497e-08 
       2.05360624e-08       2.99908636e-08      -5.75702684e-08 
      -7.48187634e-09       4.05517067e-08      -7.78427511e-08 
      -2.37346630e-08       4.05517058e-08      -7.78427292e-08 
       7.46406781e-09       4.05516874e-08      -7.78427326e-08 
       2.37168545e-08       4.05516883e-08      -7.78427545e-08 
      -7.48187634e-09       4.05517067e-08      -7.78427511e-08 
      -2.37346630e-08       4.05517058e-08      -7.78427292e-08 
       7.46406781e-09       4.05516874e-08      -7.78427326e-08 
       2.37168545e-08       4.05516883e-08      -7.78427545e-08 
      -8.46364767e-09       5.26138701e-08      -1.00997191e-07 
      -2.68488936e-08       5.26138689e-08      -1.00997165e-07 
       8.44329040e-09       5.26138481e-08      -1.00997170e-07 
       2.68285363e-08       5.26138493e-08      -1.00997195e-07 
      -8.46364767e-09       5.26138701e-08      -1.00997191e-07 
      -2.68488936e-08       5.26138689e-08      -1.00997165e-07 
       8.44329040e-09       5.26138481e-08      -1.00997170e-07 
       2.68285363e-08       5.26138493e-08      -1.00997195e-07 
      -9.42365208e-09       6.61444052e-08      -1.26970306e-07 
      -2.98940154e-08       6.61444038e-08      -1.26970277e-07 
       9.40074496e-09       6.61443807e-08      -1.26970283e-07 
       2.98711083e-08       6.61443821e-08      -1.26970311e-07 
      -9.42365208e-09       6.61444052e-08      -1.26970306e-07 
      -2.98940154e-08       6.61444038e-08      -1.26970277e-07 
       9.40074496e-09       6.61443807e-08      -1.26970283e-07 
       2.98711083e-08       6.61443821e-08      -1.26970311e-07 
      -1.03618895e-08       8.11103475e-08      -1.55698818e-07 
      -3.28700284e-08       8.11103458e-08      -1.55698786e-07 
       1.03364313e-08       8.11103203e-08      -1.55698793e-07 
       3.28445702e-08       8.11103221e-08      -1.55698825e-07 
      -1.03618895e-08       8.11103475e-08      -1.55698818e-07 
      -3.28700285e-08       8.11103458e-08      -1.55698786e-07 
       1.03364310e-08       8.11103204e-08      -1.55698793e-07 
       3.28445702e-08       8.11103221e-08      -1.55698825e-07 
      -1.12790499e-08       9.74793100e-08      -1.87120559e-07 
      -3.57801144e-08       9.74793080e-08      -1.87120524e-07 
       1.12519503e-08       9.74792815e-08      -1.87120532e-07 
       3.57530148e-08       9.74792835e-08      -1.87120566e-07 
      -1.12790499e-08       9.74793100e-08      -1.87120559e-07 
      -3.57801144e-08       9.74793080e-08      -1.87120524e-07 
       1.12519503e-08       9.74792815e-08      -1.87120532e-07 
       3.57530148e-08       9.74792835e-08      -1.87120566e-07 
      -1.21767356e-08       1.15221220e-07      -2.21177799e-07 
      -3.86283669e-08       1.15221218e-07      -2.21177763e-07 
       1.21479917e-08       1.15221190e-07      -2.21177772e-07 
       3.85996233e-08       1.15221193e-07      -2.21177808e-07 
      -1.21767356e-08       1.15221220e-07      -2.21177799e-07 
      -3.86283669e-08       1.15221218e-07      -2.21177763e-07 
       1.21479917e-08       1.15221190e-07      -2.21177772e-07 
       3.85996233e-08       1.15221193e-07      -2.21177808e-07 
      -1.30549465e-08       1.34306584e-07      -2.57813923e-07 
      -4.14147863e-08       1.34306581e-07      -2.57813884e-07 
       1.30245554e-08       1.34306553e-07      -2.57813894e-07 
       4.13843955e-08       1.34306555e-07      -2.57813934e-07 
      -1.30549465e-08       1.34306584e-07      -2.57813923e-07 
      -4.14147863e-08       1.34306581e-07      -2.57813884e-07 
       1.30245554e-08       1.34306553e-07      -2.57813894e-07 
       4.13843955e-08       1.34306555e-07      -2.57813934e-07 
      -1.39136822e-08       1.54705906e-07      -2.96972312e-07 
      -4.41393722e-08       1.54705903e-07      -2.96972270e-07 
       1.38816418e-08       1.54705873e-07      -2.96972282e-07 
       4.41073316e-08       1.54705876e-07      -2.96972324e-07 
      -1.39136822e-08       1.54705906e-07      -2.96972312e-07 
      -4.41393722e-08       1.54705903e-07      -2.96972270e-07 
       1.38816418e-08       1.54705873e-07      -2.96972282e-07 
       4.41073316e-08       1.54705876e-07      -2.96972324e-07 
      -1.47529431e-08       1.76389691e-07      -3.38596348e-07 
      -4.68021246e-08       1.76389688e-07      -3.38596304e-07 
       1.47192503e-08       1.76389658e-07      -3.38596317e-07 
       4.67684316e-08       1.76389661e-07      -3.38596361e-07 
      -1.47529431e-08       1.76389691e-07      -3.38596348e-07 
      -4.68021246e-08       1.76389688e-07      -3.38596304e-07 
       1.47192503e-08       1.76389658e-07      -3.38596317e-07 
       4.67684316e-08       1.76389661e-07      -3.38596361e-07 
      -1.55727293e-08       1.99328446e-07      -3.82629414e-07 
      -4.94030434e-08       1.99328442e-07      -3.82629368e-07 
       1.55373812e-08       1.99328411e-07      -3.82629382e-07 
       4.93676953e-08       1.99328415e-07      -3.82629429e-07 
      -1.55727293e-08       1.99328446e-07      -3.82629414e-07 
      -4.94030434e-08       1.99328442e-07      -3.82629368e-07 
       1.55373812e-08       1.99328411e-07      -3.82629382e-07 
       4.93676953e-08       1.99328415e-07      -3.82629429e-07 
      -1.63730400e-08       2.23492676e-07      -4.29014892e-07 
      -5.19421290e-08       2.23492671e-07      -4.29014843e-07 
       1.63360345e-08       2.23492639e-07      -4.29014859e-07 
       5.19051233e-08       2.23492644e-07      -4.29014908e-07 
      -1.63730400e-08       2.23492676e-07      -4.29014892e-07 
      -5.19421290e-08       2.23492671e-07      -4.29014843e-07 
       1.63360345e-08       2.23492639e-07      -4.29014859e-07 
       5.19051233e-08       2.23492644e-07      -4.29014908e-07 
      -1.71538761e-08       2.48852885e-07      -4.77696164e-07 
      -5.44193810e-08       2.48852880e-07      -4.77696112e-07 
       1.71152104e-08       2.48852847e-07      -4.77696130e-07 
       5.43807153e-08       2.48852852e-07      -4.77696182e-07 
      -1.71538761e-08       2.48852885e-07      -4.77696164e-07 
      -5.44193810e-08       2.48852880e-07      -4.77696112e-07 
       1.71152104e-08       2.48852847e-07      -4.77696130e-07 
       5.43807153e-08       2.48852852e-07      -4.77696182e-07 
      -1.79152368e-08       2.75379579e-07      -5.28616612e-07 
      -5.68347991e-08       2.75379574e-07      -5.28616558e-07 
       1.78749091e-08       2.75379540e-07      -5.28616578e-07 
       5.67944713e-08       2.75379546e-07      -5.28616632e-07 
      -1.79152368e-08       2.75379579e-07      -5.28616612e-07 
      -5.68347991e-08       2.75379574e-07      -5.28616558e-07 
       1.78749091e-08       2.75379540e-07      -5.28616578e-07 
       5.67944713e-08       2.75379546e-07      -5.28616632e-07 
      -1.86571225e-08       3.03043264e-07      -5.81719619e-07 
      -5.91883840e-08       3.03043259e-07      -5.81719563e-07 
       1.86151299e-08       3.03043224e-07      -5.81719584e-07 
       5.91463909e-08       3.03043230e-07      -5.81719640e-07 
      -1.86571225e-08       3.03043264e-07      -5.81719619e-07 
      -5.91883840e-08       3.03043258e-07      -5.81719563e-07 
       1.86151299e-08       3.03043224e-07      -5.81719584e-07 
       5.91463913e-08       3.03043230e-07      -5.81719640e-07 
      -1.93803587e-08       3.31815023e-07      -6.36949677e-07 
      -6.14834526e-08       3.31815017e-07      -6.36949619e-07 
       1.93373393e-08       3.31814982e-07      -6.36949641e-07 
       6.14404327e-08       3.31814988e-07      -6.36949699e-07 
      -1.93803587e-08       3.31815023e-07      -6.36949677e-07 
      -6.14834526e-08       3.31815017e-07      -6.36949619e-07 
       1.93373393e-08       3.31814982e-07      -6.36949641e-07 
       6.14404327e-08       3.31814988e-07      -6.36949699e-07 
      -2.00864116e-08       3.61668253e-07      -6.94255718e-07 
      -6.37239621e-08       3.61668246e-07      -6.94255658e-07 
       2.00423620e-08       3.61668211e-07      -6.94255683e-07 
       6.36799125e-08       3.61668218e-07      -6.94255743e-07 
      -2.00864116e-08       3.61668253e-07      -6.94255718e-07 
      -6.37239621e-08       3.61668246e-07      -6.94255658e-07 
       2.00423620e-08       3.61668211e-07      -6.94255683e-07 
       6.36799125e-08       3.61668218e-07      -6.94255743e-07 
      -2.07752806e-08       3.92576929e-07      -7.53587787e-07 
      -6.59099131e-08       3.92576922e-07      -7.53587726e-07 
       2.07301984e-08       3.92576887e-07      -7.53587752e-07 
       6.58648309e-08       3.92576894e-07      -7.53587813e-07 
      -2.07752806e-08       3.92576929e-07      -7.53587787e-07 
      -6.59099131e-08       3.92576922e-07      -7.53587726e-07 
       2.07301984e-08       3.92576887e-07      -7.53587752e-07 
       6.58648309e-08       3.92576894e-07      -7.53587813e-07 
      -2.14469669e-08       4.24515027e-07      -8.14895927e-07 
      -6.80413064e-08       4.24515019e-07      -8.14895863e-07 
       2.14008478e-08       4.24514985e-07      -8.14895891e-07 
       6.79951873e-08       4.24514992e-07      -8.14895954e-07 
      -2.14469669e-08       4.24515027e-07      -8.14895927e-07 
      -6.80413064e-08       4.24515019e-07      -8.14895863e-07 
       2.14008478e-08       4.24514985e-07      -8.14895891e-07 
       6.79951873e-08       4.24514992e-07      -8.14895954e-07 
      -2.21014700e-08       4.57456521e-07      -8.78130179e-07 
      -7.01181411e-08       4.57456513e-07      -8.78130114e-07 
       2.20543108e-08       4.57456479e-07      -8.78130144e-07 
       7.00709819e-08       4.57456487e-07      -8.78130209e-07 
      -2.21014700e-08       4.57456521e-07      -8.78130179e-07 
      -7.01181411e-08       4.57456513e-07      -8.78130114e-07 
       2.20543108e-08       4.57456479e-07      -8.78130144e-07 
       7.00709819e-08       4.57456487e-07      -8.78130209e-07 
      -2.27387891e-08       4.91375389e-07      -9.43240589e-07 
      -7.21404168e-08       4.91375380e-07      -9.43240522e-07 
       2.26905872e-08       4.91375346e-07      -9.43240553e-07 
       7.20922149e-08       4.91375354e-07      -9.43240620e-07 
      -2.27387891e-08       4.91375389e-07      -9.43240589e-07 
      -7.21404168e-08       4.91375380e-07      -9.43240522e-07 
       2.26905872e-08       4.91375346e-07      -9.43240553e-07 
       7.20922149e-08       4.91375354e-07      -9.43240620e-07 
      -2.33589250e-08       5.26245603e-07      -1.01017720e-06 
      -7.41081343e-08       5.26245594e-07      -1.01017713e-06 
       2.33096773e-08       5.26245560e-07      -1.01017716e-06 
       7.40588861e-08       5.26245569e-07      -1.01017723e-06 
      -2.33589250e-08       5.26245603e-07      -1.01017720e-06 
      -7.41081343e-08       5.26245594e-07      -1.01017713e-06 
       2.33096773e-08       5.26245560e-07      -1.01017716e-06 
       7.40588861e-08       5.26245569e-07      -1.01017723e-06 
      -2.39618769e-08       5.62041141e-07      -1.07889005e-06 
      -7.60212924e-08       5.62041131e-07      -1.07888998e-06 
       2.39115816e-08       5.62041097e-07      -1.07889002e-06 
       7.59709966e-08       5.62041107e-07      -1.07889009e-06 
      -2.39618769e-08       5.62041141e-07      -1.07889005e-06 
      -7.60212924e-08       5.62041131e-07      -1.07888998e-06 
       2.39115816e-08       5.62041097e-07      -1.07889002e-06 
       7.59709966e-08       5.62041107e-07      -1.07889009e-06 
      -2.45476461e-08       5.98735977e-07      -1.14932919e-06 
      -7.78798923e-08       5.98735967e-07      -1.14932912e-06 
       2.44962988e-08       5.98735932e-07      -1.14932915e-06 
       7.78285454e-08       5.98735942e-07      -1.14932923e-06 
      -2.45476461e-08       5.98735977e-07      -1.14932919e-06 
      -7.78798923e-08       5.98735967e-07      -1.14932912e-06 
       2.44962988e-08       5.98735932e-07      -1.14932915e-06 
       7.78285454e-08       5.98735942e-07      -1.14932923e-06 
      -2.51162318e-08       6.36304086e-07      -1.22144466e-06 
      -7.96839337e-08       6.36304076e-07      -1.22144458e-06 
       2.50638297e-08       6.36304041e-07      -1.22144462e-06 
       7.96315325e-08       6.36304052e-07      -1.22144470e-06 
      -2.51162313e-08       6.36304086e-07      -1.22144466e-06 
      -7.96839337e-08       6.36304076e-07      -1.22144458e-06 
       2.50638297e-08       6.36304041e-07      -1.22144462e-06 
       7.96315320e-08       6.36304052e-07      -1.22144470e-06 
      -2.56685637e-08       6.74720022e-07      -1.29518761e-06 
      -8.14368386e-08       6.74720011e-07      -1.29518753e-06 
       2.56155350e-08       6.74719977e-07      -1.29518757e-06 
       8.13838099e-08       6.74719988e-07      -1.29518765e-06 
      -2.56685637e-08       6.74720022e-07      -1.29518761e-06 
      -8.14368386e-08       6.74720011e-07      -1.29518753e-06 
       2.56155350e-08       6.74719977e-07      -1.29518757e-06 
       8.13838099e-08       6.74719988e-07      -1.29518765e-06 
      -2.62060045e-08       7.13960652e-07      -1.37051364e-06 
      -8.31424600e-08       7.13960641e-07      -1.37051356e-06 
       2.61523452e-08       7.13960608e-07      -1.37051360e-06 
       8.30888007e-08       7.13960619e-07      -1.37051368e-06 
      -2.62060045e-08       7.13960652e-07      -1.37051364e-06 
      -8.31424600e-08       7.13960641e-07      -1.37051356e-06 
       2.61523452e-08       7.13960608e-07      -1.37051360e-06 
       8.30888007e-08       7.13960619e-07      -1.37051368e-06 
      -2.67285523e-08       7.54003422e-07      -1.44737944e-06 
      -8.48007966e-08       7.54003410e-07      -1.44737937e-06 
       2.66742601e-08       7.54003377e-07      -1.44737941e-06 
       8.47465049e-08       7.54003389e-07      -1.44737949e-06 
      -2.67285523e-08       7.54003422e-07      -1.44737944e-06 
      -8.48007966e-08       7.54003410e-07      -1.44737937e-06 
       2.66742601e-08       7.54003377e-07      -1.44737941e-06 
       8.47465049e-08       7.54003389e-07      -1.44737949e-06 
      -2.72362084e-08       7.94825776e-07      -1.52574174e-06 
      -8.64118501e-08       7.94825763e-07      -1.52574166e-06 
       2.71812799e-08       7.94825731e-07      -1.52574170e-06 
       8.63569216e-08       7.94825743e-07      -1.52574178e-06 
      -2.72362084e-08       7.94825776e-07      -1.52574174e-06 
      -8.64118501e-08       7.94825763e-07      -1.52574166e-06 
       2.71812799e-08       7.94825731e-07      -1.52574170e-06 
       8.63569216e-08       7.94825743e-07      -1.52574178e-06 
      -2.77289729e-08       8.36405159e-07      -1.60555722e-06 
      -8.79756197e-08       8.36405147e-07      -1.60555714e-06 
       2.76734045e-08       8.36405115e-07      -1.60555718e-06 
       8.79200517e-08       8.36405127e-07      -1.60555726e-06 
      -2.77289729e-08       8.36405159e-07      -1.60555722e-06 
      -8.79756197e-08       8.36405147e-07      -1.60555714e-06 
       2.76734045e-08       8.36405115e-07      -1.60555718e-06 
       8.79200517e-08       8.36405127e-07      -1.60555726e-06 
      -2.82068449e-08       8.78719018e-07      -1.68678259e-06 
      -8.94921053e-08       8.78719005e-07      -1.68678251e-06 
       2.81506338e-08       8.78718973e-07      -1.68678256e-06 
       8.94358947e-08       8.78718986e-07      -1.68678264e-06 
      -2.82068449e-08       8.78719018e-07      -1.68678259e-06 
      -8.94921053e-08       8.78719005e-07      -1.68678251e-06 
       2.81506338e-08       8.78718973e-07      -1.68678256e-06 
       8.94358947e-08       8.78718986e-07      -1.68678264e-06 
      -2.86698243e-08       9.21744797e-07      -1.76937456e-06 
      -9.09613069e-08       9.21744784e-07      -1.76937448e-06 
       2.86129684e-08       9.21744752e-07      -1.76937453e-06 
       9.09044511e-08       9.21744766e-07      -1.76937461e-06 
      -2.86698243e-08       9.21744797e-07      -1.76937456e-06 
      -9.09613069e-08       9.21744784e-07      -1.76937448e-06 
       2.86129684e-08       9.21744752e-07      -1.76937453e-06 
       9.09044511e-08       9.21744766e-07      -1.76937461e-06 
      -2.91179116e-08       9.65459942e-07      -1.85328984e-06 
      -9.23832237e-08       9.65459928e-07      -1.85328975e-06 
       2.90604083e-08       9.65459897e-07      -1.85328980e-06 
       9.23257208e-08       9.65459911e-07      -1.85328989e-06 
      -2.91179116e-08       9.65459942e-07      -1.85328984e-06 
      -9.23832237e-08       9.65459928e-07      -1.85328975e-06 