# vtk DataFile Version 2.0
./output/onsasExample_nonLinearCantileverBlade_staitc3D_no_pitch numElements=10/onsasExample_nonLinearCantileverBlade_staitc3D_no_pitch numElements=10_0019.vtk
ASCII
DATASET UNSTRUCTURED_GRID

POINTS 800 float
      -4.902694e-24      -7.180703e-02      -7.180703e-02 
      -2.873211e-24       7.180703e-02      -7.180703e-02 
       4.902694e-24       7.180703e-02       7.180703e-02 
       2.873211e-24      -7.180703e-02       7.180703e-02 
       1.000000e-01      -7.180703e-02      -7.180703e-02 
       1.000000e-01       7.180703e-02      -7.180703e-02 
       1.000000e-01       7.180703e-02       7.180704e-02 
       1.000000e-01      -7.180703e-02       7.180704e-02 
       1.000000e-01      -7.180703e-02      -7.180703e-02 
       1.000000e-01       7.180703e-02      -7.180703e-02 
       1.000000e-01       7.180703e-02       7.180704e-02 
       1.000000e-01      -7.180703e-02       7.180704e-02 
       2.000000e-01      -7.180703e-02      -7.180702e-02 
       2.000000e-01       7.180703e-02      -7.180702e-02 
       2.000000e-01       7.180703e-02       7.180704e-02 
       2.000000e-01      -7.180703e-02       7.180704e-02 
       2.000000e-01      -7.180703e-02      -7.180702e-02 
       2.000000e-01       7.180703e-02      -7.180702e-02 
       2.000000e-01       7.180703e-02       7.180704e-02 
       2.000000e-01      -7.180703e-02       7.180704e-02 
       3.000000e-01      -7.180703e-02      -7.180701e-02 
       3.000000e-01       7.180703e-02      -7.180701e-02 
       3.000000e-01       7.180703e-02       7.180706e-02 
       3.000000e-01      -7.180703e-02       7.180706e-02 
       3.000000e-01      -7.180703e-02      -7.180701e-02 
       3.000000e-01       7.180703e-02      -7.180701e-02 
       3.000000e-01       7.180703e-02       7.180706e-02 
       3.000000e-01      -7.180703e-02       7.180706e-02 
       4.000000e-01      -7.180703e-02      -7.180699e-02 
       4.000000e-01       7.180704e-02      -7.180699e-02 
       4.000000e-01       7.180704e-02       7.180707e-02 
       4.000000e-01      -7.180703e-02       7.180707e-02 
       4.000000e-01      -7.180703e-02      -7.180699e-02 
       4.000000e-01       7.180704e-02      -7.180699e-02 
       4.000000e-01       7.180704e-02       7.180707e-02 
       4.000000e-01      -7.180703e-02       7.180707e-02 
       5.000000e-01      -7.180703e-02      -7.180697e-02 
       5.000000e-01       7.180704e-02      -7.180697e-02 
       5.000000e-01       7.180704e-02       7.180709e-02 
       5.000000e-01      -7.180703e-02       7.180709e-02 
       5.000000e-01      -7.180703e-02      -7.180697e-02 
       5.000000e-01       7.180704e-02      -7.180697e-02 
       5.000000e-01       7.180704e-02       7.180709e-02 
       5.000000e-01      -7.180703e-02       7.180709e-02 
       6.000000e-01      -7.180703e-02      -7.180695e-02 
       6.000000e-01       7.180704e-02      -7.180695e-02 
       6.000000e-01       7.180704e-02       7.180712e-02 
       6.000000e-01      -7.180703e-02       7.180712e-02 
       6.000000e-01      -7.180703e-02      -7.180695e-02 
       6.000000e-01       7.180704e-02      -7.180695e-02 
       6.000000e-01       7.180704e-02       7.180712e-02 
       6.000000e-01      -7.180703e-02       7.180712e-02 
       7.000000e-01      -7.180702e-02      -7.180692e-02 
       7.000000e-01       7.180704e-02      -7.180692e-02 
       7.000000e-01       7.180704e-02       7.180715e-02 
       7.000000e-01      -7.180702e-02       7.180715e-02 
       7.000000e-01      -7.180702e-02      -7.180692e-02 
       7.000000e-01       7.180704e-02      -7.180692e-02 
       7.000000e-01       7.180704e-02       7.180715e-02 
       7.000000e-01      -7.180702e-02       7.180715e-02 
       8.000000e-01      -7.180702e-02      -7.180688e-02 
       8.000000e-01       7.180704e-02      -7.180688e-02 
       8.000000e-01       7.180704e-02       7.180719e-02 
       8.000000e-01      -7.180702e-02       7.180719e-02 
       8.000000e-01      -7.180702e-02      -7.180688e-02 
       8.000000e-01       7.180704e-02      -7.180688e-02 
       8.000000e-01       7.180704e-02       7.180719e-02 
       8.000000e-01      -7.180702e-02       7.180719e-02 
       9.000000e-01      -7.180702e-02      -7.180684e-02 
       9.000000e-01       7.180705e-02      -7.180684e-02 
       9.000000e-01       7.180705e-02       7.180722e-02 
       9.000000e-01      -7.180702e-02       7.180722e-02 
       9.000000e-01      -7.180702e-02      -7.180684e-02 
       9.000000e-01       7.180705e-02      -7.180684e-02 
       9.000000e-01       7.180705e-02       7.180722e-02 
       9.000000e-01      -7.180702e-02       7.180722e-02 
       1.000000e+00      -7.180702e-02      -7.180680e-02 
       1.000000e+00       7.180705e-02      -7.180680e-02 
       1.000000e+00       7.180705e-02       7.180727e-02 
       1.000000e+00      -7.180702e-02       7.180727e-02 
       1.000000e+00      -7.180702e-02      -7.180680e-02 
       1.000000e+00       7.180705e-02      -7.180680e-02 
       1.000000e+00       7.180705e-02       7.180727e-02 
       1.000000e+00      -7.180702e-02       7.180727e-02 
       1.100000e+00      -7.180701e-02      -7.180675e-02 
       1.100000e+00       7.180705e-02      -7.180675e-02 
       1.100000e+00       7.180705e-02       7.180731e-02 
       1.100000e+00      -7.180701e-02       7.180731e-02 
       1.100000e+00      -7.180701e-02      -7.180675e-02 
       1.100000e+00       7.180705e-02      -7.180675e-02 
       1.100000e+00       7.180705e-02       7.180731e-02 
       1.100000e+00      -7.180701e-02       7.180731e-02 
       1.200000e+00      -7.180701e-02      -7.180670e-02 
       1.200000e+00       7.180706e-02      -7.180670e-02 
       1.200000e+00       7.180706e-02       7.180737e-02 
       1.200000e+00      -7.180701e-02       7.180737e-02 
       1.200000e+00      -7.180701e-02      -7.180670e-02 
       1.200000e+00       7.180706e-02      -7.180670e-02 
       1.200000e+00       7.180706e-02       7.180737e-02 
       1.200000e+00      -7.180701e-02       7.180737e-02 
       1.300000e+00      -7.180700e-02      -7.180665e-02 
       1.300000e+00       7.180706e-02      -7.180665e-02 
       1.300000e+00       7.180706e-02       7.180742e-02 
       1.300000e+00      -7.180700e-02       7.180742e-02 
       1.300000e+00      -7.180700e-02      -7.180665e-02 
       1.300000e+00       7.180706e-02      -7.180665e-02 
       1.300000e+00       7.180706e-02       7.180742e-02 
       1.300000e+00      -7.180700e-02       7.180742e-02 
       1.400000e+00      -7.180700e-02      -7.180659e-02 
       1.400000e+00       7.180707e-02      -7.180659e-02 
       1.400000e+00       7.180707e-02       7.180748e-02 
       1.400000e+00      -7.180700e-02       7.180748e-02 
       1.400000e+00      -7.180700e-02      -7.180659e-02 
       1.400000e+00       7.180707e-02      -7.180659e-02 
       1.400000e+00       7.180707e-02       7.180748e-02 
       1.400000e+00      -7.180700e-02       7.180748e-02 
       1.500000e+00      -7.180700e-02      -7.180652e-02 
       1.500000e+00       7.180707e-02      -7.180652e-02 
       1.500000e+00       7.180707e-02       7.180754e-02 
       1.500000e+00      -7.180700e-02       7.180754e-02 
       1.500000e+00      -7.180700e-02      -7.180652e-02 
       1.500000e+00       7.180707e-02      -7.180652e-02 
       1.500000e+00       7.180707e-02       7.180754e-02 
       1.500000e+00      -7.180700e-02       7.180754e-02 
       1.600000e+00      -7.180699e-02      -7.180646e-02 
       1.600000e+00       7.180708e-02      -7.180646e-02 
       1.600000e+00       7.180708e-02       7.180761e-02 
       1.600000e+00      -7.180699e-02       7.180761e-02 
       1.600000e+00      -7.180699e-02      -7.180646e-02 
       1.600000e+00       7.180708e-02      -7.180646e-02 
       1.600000e+00       7.180708e-02       7.180761e-02 
       1.600000e+00      -7.180699e-02       7.180761e-02 
       1.700000e+00      -7.180699e-02      -7.180639e-02 
       1.700000e+00       7.180708e-02      -7.180639e-02 
       1.700000e+00       7.180708e-02       7.180768e-02 
       1.700000e+00      -7.180699e-02       7.180768e-02 
       1.700000e+00      -7.180699e-02      -7.180639e-02 
       1.700000e+00       7.180708e-02      -7.180639e-02 
       1.700000e+00       7.180708e-02       7.180768e-02 
       1.700000e+00      -7.180699e-02       7.180768e-02 
       1.800000e+00      -7.180698e-02      -7.180631e-02 
       1.800000e+00       7.180709e-02      -7.180631e-02 
       1.800000e+00       7.180709e-02       7.180775e-02 
       1.800000e+00      -7.180698e-02       7.180775e-02 
       1.800000e+00      -7.180698e-02      -7.180631e-02 
       1.800000e+00       7.180709e-02      -7.180631e-02 
       1.800000e+00       7.180709e-02       7.180775e-02 
       1.800000e+00      -7.180698e-02       7.180775e-02 
       1.900000e+00      -7.180697e-02      -7.180624e-02 
       1.900000e+00       7.180709e-02      -7.180624e-02 
       1.900000e+00       7.180709e-02       7.180783e-02 
       1.900000e+00      -7.180697e-02       7.180783e-02 
       1.900000e+00      -7.180697e-02      -7.180624e-02 
       1.900000e+00       7.180709e-02      -7.180624e-02 
       1.900000e+00       7.180709e-02       7.180783e-02 
       1.900000e+00      -7.180697e-02       7.180783e-02 
       2.000000e+00      -7.180697e-02      -7.180616e-02 
       2.000000e+00       7.180710e-02      -7.180616e-02 
       2.000000e+00       7.180710e-02       7.180791e-02 
       2.000000e+00      -7.180697e-02       7.180791e-02 
       2.000000e+00      -7.180697e-02      -7.180616e-02 
       2.000000e+00       7.180710e-02      -7.180616e-02 
       2.000000e+00       7.180710e-02       7.180791e-02 
       2.000000e+00      -7.180697e-02       7.180791e-02 
       2.100000e+00      -7.180696e-02      -7.180607e-02 
[...]
POINT_DATA       800 
VECTORS Displacements float
      -4.90269446e-24       0.00000000e+00      -1.38777878e-17 
      -2.87321128e-24       1.38777878e-17      -1.38777878e-17 
       4.90269446e-24       0.00000000e+00       1.38777878e-17 
       2.87321128e-24      -1.38777878e-17       1.38777878e-17 
       3.81982347e-09       1.82178952e-10       2.48650453e-09 
       3.29822335e-09       1.82178966e-10       2.48650359e-09 
      -3.82091705e-09       1.82179868e-10       2.48650343e-09 
      -3.29931693e-09       1.82179855e-10       2.48650438e-09 
       3.81982347e-09       1.82178952e-10       2.48650453e-09 
       3.29822335e-09       1.82178966e-10       2.48650359e-09 
      -3.82091705e-09       1.82179868e-10       2.48650343e-09 
      -3.29931693e-09       1.82179855e-10       2.48650438e-09 
       7.56623905e-09       7.24064295e-10       9.88251776e-09 
       6.53306112e-09       7.24064322e-10       9.88251586e-09 
      -7.56842852e-09       7.24066099e-10       9.88251518e-09 
      -6.53525059e-09       7.24066071e-10       9.88251707e-09 
       7.56623905e-09       7.24064295e-10       9.88251776e-09 
       6.53306112e-09       7.24064322e-10       9.88251586e-09 
      -7.56842852e-09       7.24066099e-10       9.88251518e-09 
      -6.53525059e-09       7.24066071e-10       9.88251707e-09 
       1.12392466e-08       1.61867739e-09       2.20927905e-08 
       9.70451330e-09       1.61867740e-09       2.20927877e-08 
      -1.12425344e-08       1.61868006e-09       2.20927862e-08 
      -9.70780106e-09       1.61868004e-09       2.20927890e-08 
       1.12392466e-08       1.61867739e-09       2.20927905e-08 
       9.70451330e-09       1.61867740e-09       2.20927877e-08 
      -1.12425344e-08       1.61868006e-09       2.20927862e-08 
      -9.70780106e-09       1.61868004e-09       2.20927890e-08 
       1.48388466e-08       2.85903959e-09       3.90220737e-08 
       1.28125800e-08       2.85903960e-09       3.90220698e-08 
      -1.48432346e-08       2.85904309e-09       3.90220672e-08 
      -1.28169680e-08       2.85904309e-09       3.90220711e-08 
       1.48388466e-08       2.85903959e-09       3.90220737e-08 
       1.28125800e-08       2.85903960e-09       3.90220698e-08 
      -1.48432346e-08       2.85904309e-09       3.90220672e-08 
      -1.28169680e-08       2.85904309e-09       3.90220711e-08 
       1.83650385e-08       4.43817225e-09       6.05751181e-08 
       1.58572611e-08       4.43817223e-09       6.05751132e-08 
      -1.83705292e-08       4.43817653e-09       6.05751092e-08 
      -1.58627518e-08       4.43817653e-09       6.05751140e-08 
       1.83650385e-08       4.43817225e-09       6.05751181e-08 
       1.58572611e-08       4.43817223e-09       6.05751132e-08 
      -1.83705292e-08       4.43817653e-09       6.05751092e-08 
      -1.58627518e-08       4.43817653e-09       6.05751140e-08 
       2.18178227e-08       6.34909671e-09       8.66566746e-08 
       1.88385567e-08       6.34909669e-09       8.66566687e-08 
      -2.18244182e-08       6.34910180e-09       8.66566629e-08 
      -1.88451522e-08       6.34910180e-09       8.66566689e-08 
       2.18178227e-08       6.34909671e-09       8.66566746e-08 
       1.88385567e-08       6.34909669e-09       8.66566687e-08 
      -2.18244182e-08       6.34910180e-09       8.66566629e-08 
      -1.88451522e-08       6.34910180e-09       8.66566689e-08 
       2.51971990e-08       8.58483432e-09       1.17171494e-07 
       2.17564670e-08       8.58483430e-09       1.17171487e-07 
      -2.52049014e-08       8.58484017e-09       1.17171479e-07 
      -2.17641694e-08       8.58484020e-09       1.17171486e-07 
       2.51971990e-08       8.58483432e-09       1.17171494e-07 
       2.17564670e-08       8.58483430e-09       1.17171487e-07 
      -2.52049014e-08       8.58484017e-09       1.17171479e-07 
      -2.17641694e-08       8.58484020e-09       1.17171486e-07 
       2.85031677e-08       1.11384064e-08       1.52024327e-07 
       2.46109917e-08       1.11384064e-08       1.52024319e-07 
      -2.85119787e-08       1.11384131e-08       1.52024309e-07 
      -2.46198026e-08       1.11384131e-08       1.52024317e-07 
       2.85031677e-08       1.11384064e-08       1.52024327e-07 
       2.46109917e-08       1.11384064e-08       1.52024319e-07 
      -2.85119787e-08       1.11384131e-08       1.52024309e-07 
      -2.46198026e-08       1.11384131e-08       1.52024317e-07 
       3.17357286e-08       1.40028344e-08       1.91119925e-07 
       2.74021310e-08       1.40028344e-08       1.91119916e-07 
      -3.17456504e-08       1.40028418e-08       1.91119904e-07 
      -2.74120528e-08       1.40028418e-08       1.91119913e-07 
       3.17357286e-08       1.40028344e-08       1.91119925e-07 
       2.74021310e-08       1.40028344e-08       1.91119916e-07 
      -3.17456504e-08       1.40028418e-08       1.91119904e-07 
      -2.74120528e-08       1.40028418e-08       1.91119913e-07 
       3.48948817e-08       1.71711396e-08       2.34363038e-07 
       3.01298850e-08       1.71711396e-08       2.34363028e-07 
      -3.49059166e-08       1.71711477e-08       2.34363013e-07 
      -3.01409196e-08       1.71711478e-08       2.34363024e-07 
       3.48948819e-08       1.71711397e-08       2.34363038e-07 
       3.01298848e-08       1.71711396e-08       2.34363028e-07 
      -3.49059165e-08       1.71711477e-08       2.34363013e-07 
      -3.01409196e-08       1.71711478e-08       2.34363024e-07 
       3.79846863e-08       2.06364661e-08       2.81660089e-07 
       3.27977849e-08       2.06364660e-08       2.81660078e-07 
      -3.79964447e-08       2.06364744e-08       2.81660060e-07 
      -3.28095435e-08       2.06364745e-08       2.81660071e-07 
       3.79846863e-08       2.06364661e-08       2.81660089e-07 
       3.27977849e-08       2.06364660e-08       2.81660078e-07 
      -3.79964447e-08       2.06364744e-08       2.81660060e-07 
      -3.28095435e-08       2.06364745e-08       2.81660071e-07 
       4.10088086e-08       2.43924470e-08       3.32924183e-07 
       3.54089702e-08       2.43924469e-08       3.32924171e-07 
      -4.10212957e-08       2.43924556e-08       3.32924151e-07 
      -3.54214571e-08       2.43924557e-08       3.32924162e-07 
       4.10088086e-08       2.43924470e-08       3.32924183e-07 
       3.54089702e-08       2.43924469e-08       3.32924171e-07 
      -4.10212957e-08       2.43924556e-08       3.32924151e-07 
      -3.54214571e-08       2.43924557e-08       3.32924162e-07 
       4.39672485e-08       2.84328384e-08       3.88070097e-07 
       3.79634404e-08       2.84328383e-08       3.88070084e-07 
      -4.39804695e-08       2.84328473e-08       3.88070061e-07 
      -3.79766611e-08       2.84328474e-08       3.88070074e-07 
       4.39672485e-08       2.84328384e-08       3.88070097e-07 
       3.79634404e-08       2.84328383e-08       3.88070084e-07 
      -4.39804695e-08       2.84328473e-08       3.88070061e-07 
      -3.79766611e-08       2.84328474e-08       3.88070074e-07 
       4.68600065e-08       3.27513962e-08       4.47012609e-07 
       4.04611959e-08       3.27513960e-08       4.47012596e-07 
      -4.68739658e-08       3.27514054e-08       4.47012569e-07 
      -4.04751552e-08       3.27514055e-08       4.47012582e-07 
       4.68600065e-08       3.27513962e-08       4.47012609e-07 
       4.04611959e-08       3.27513960e-08       4.47012596e-07 
      -4.68739658e-08       3.27514054e-08       4.47012569e-07 
      -4.04751552e-08       3.27514055e-08       4.47012582e-07 
       4.96870822e-08       3.73418763e-08       5.09666495e-07 
       4.29022364e-08       3.73418762e-08       5.09666481e-07 
      -4.97017851e-08       3.73418858e-08       5.09666451e-07 
      -4.29169393e-08       3.73418860e-08       5.09666465e-07 
       4.96870822e-08       3.73418763e-08       5.09666495e-07 
       4.29022364e-08       3.73418762e-08       5.09666481e-07 
      -4.97017851e-08       3.73418858e-08       5.09666451e-07 
      -4.29169393e-08       3.73418860e-08       5.09666465e-07 
       5.24484758e-08       4.21980348e-08       5.75946533e-07 
       4.52865625e-08       4.21980346e-08       5.75946519e-07 
      -5.24639270e-08       4.21980445e-08       5.75946485e-07 
      -4.53020137e-08       4.21980447e-08       5.75946500e-07 
       5.24484758e-08       4.21980348e-08       5.75946533e-07 
       4.52865625e-08       4.21980346e-08       5.75946519e-07 
      -5.24639270e-08       4.21980445e-08       5.75946485e-07 
      -4.53020137e-08       4.21980447e-08       5.75946500e-07 
       5.51441877e-08       4.73136275e-08       6.45767500e-07 
       4.76141737e-08       4.73136273e-08       6.45767485e-07 
      -5.51603911e-08       4.73136375e-08       6.45767448e-07 
      -4.76303774e-08       4.73136377e-08       6.45767464e-07 
       5.51441877e-08       4.73136275e-08       6.45767500e-07 
       4.76141737e-08       4.73136273e-08       6.45767485e-07 
      -5.51603911e-08       4.73136375e-08       6.45767448e-07 
      -4.76303774e-08       4.73136377e-08       6.45767464e-07 
       5.77742172e-08       5.26824104e-08       7.19044173e-07 
       4.98850705e-08       5.26824102e-08       7.19044157e-07 
      -5.77911783e-08       5.26824207e-08       7.19044116e-07 
      -4.99020314e-08       5.26824209e-08       7.19044133e-07 
       5.77742172e-08       5.26824104e-08       7.19044173e-07 
       4.98850705e-08       5.26824102e-08       7.19044157e-07 
      -5.77911783e-08       5.26824207e-08       7.19044116e-07 
      -4.99020314e-08       5.26824209e-08       7.19044133e-07 
       6.03385653e-08       5.82981395e-08       7.95691329e-07 
       5.20992525e-08       5.82981393e-08       7.95691312e-07 
      -6.03562875e-08       5.82981500e-08       7.95691268e-07 
      -5.21169747e-08       5.82981502e-08       7.95691285e-07 
       6.03385653e-08       5.82981395e-08       7.95691329e-07 
       5.20992525e-08       5.82981393e-08       7.95691312e-07 
      -6.03562875e-08       5.82981500e-08       7.95691268e-07 
      -5.21169747e-08       5.82981502e-08       7.95691285e-07 
       6.28372314e-08       6.41545707e-08       8.75623744e-07 
       5.42567200e-08       6.41545704e-08       8.75623726e-07 
      -6.28557193e-08       6.41545814e-08       8.75623679e-07 
      -5.42752083e-08       6.41545816e-08       8.75623697e-07 
       6.28372314e-08       6.41545707e-08       8.75623744e-07 
       5.42567204e-08       6.41545704e-08       8.75623726e-07 
      -6.28557191e-08       6.41545814e-08       8.75623679e-07 
      -5.42752081e-08       6.41545816e-08       8.75623697e-07 
       6.52742167e-08       7.02455824e-08       9.58757868e-07 
       5.63609470e-08       7.02455822e-08       9.58757850e-07 
      -6.52931993e-08       7.02455931e-08       9.58757798e-07 
      -5.63799296e-08       7.02455934e-08       9.58757817e-07 
       6.52742167e-08       7.02455824e-08       9.58757868e-07 
       5.63609470e-08       7.02455822e-08       9.58757850e-07 
      -6.52931993e-08       7.02455931e-08       9.58757798e-07 
      -5.63799296e-08       7.02455934e-08       9.58757817e-07 
       6.76532461e-08       7.65655428e-08       1.04501683e-06 
       5.84151301e-08       7.65655425e-08       1.04501681e-06 
      -6.76727296e-08       7.65655535e-08       1.04501676e-06 
      -5.84346140e-08       7.65655537e-08       1.04501678e-06 
       6.76532461e-08       7.65655428e-08       1.04501683e-06 
       5.84151301e-08       7.65655425e-08       1.04501681e-06 
      -6.76727296e-08       7.65655535e-08       1.04501676e-06 
      -5.84346140e-08       7.65655537e-08       1.04501678e-06 
       6.99743201e-08       8.31089422e-08       1.13432544e-06 
       6.04192705e-08       8.31089419e-08       1.13432542e-06 
      -6.99943099e-08       8.31089529e-08       1.13432536e-06 
      -6.04392603e-08       8.31089532e-08       1.13432538e-06 
       6.99743201e-08       8.31089422e-08       1.13432544e-06 
       6.04192705e-08       8.31089419e-08       1.13432542e-06 
      -6.99943099e-08       8.31089529e-08       1.13432536e-06 
      -6.04392603e-08       8.31089532e-08       1.13432538e-06 
       7.22374387e-08       8.98702714e-08       1.22660849e-06 
       6.23733674e-08       8.98702710e-08       1.22660847e-06 
      -7.22579410e-08       8.98702820e-08       1.22660841e-06 
      -6.23938696e-08       8.98702823e-08       1.22660843e-06 
       7.22374387e-08       8.98702714e-08       1.22660849e-06 
       6.23733674e-08       8.98702710e-08       1.22660847e-06 
      -7.22579410e-08       8.98702820e-08       1.22660841e-06 
      -6.23938696e-08       8.98702823e-08       1.22660843e-06 
       7.44426014e-08       9.68440207e-08       1.32179080e-06 
       6.42774212e-08       9.68440204e-08       1.32179078e-06 
      -7.44636219e-08       9.68440313e-08       1.32179071e-06 
      -6.42984417e-08       9.68440317e-08       1.32179073e-06 
       7.44426014e-08       9.68440207e-08       1.32179080e-06 
       6.42774212e-08       9.68440204e-08       1.32179078e-06 
      -7.44636219e-08       9.68440313e-08       1.32179071e-06 
      -6.42984417e-08       9.68440317e-08       1.32179073e-06 
       7.65898087e-08       1.04024681e-07       1.41979716e-06 
       6.61314314e-08       1.04024680e-07       1.41979714e-06 
      -7.66113533e-08       1.04024691e-07       1.41979707e-06 
      -6.61529760e-08       1.04024692e-07       1.41979709e-06 
       7.65898087e-08       1.04024681e-07       1.41979716e-06 
       6.61314314e-08       1.04024680e-07       1.41979714e-06 
      -7.66113533e-08       1.04024691e-07       1.41979707e-06 
      -6.61529760e-08       1.04024692e-07       1.41979709e-06 
       7.86790606e-08       1.11406742e-07       1.52055237e-06 
       6.79353995e-08       1.11406742e-07       1.52055235e-06 
      -7.87011341e-08       1.11406753e-07       1.52055228e-06 
      -6.79574725e-08       1.11406753e-07       1.52055230e-06 
       7.86790606e-08       1.11406742e-07       1.52055237e-06 
       6.79353995e-08       1.11406742e-07       1.52055235e-06 
      -7.87011341e-08       1.11406753e-07       1.52055228e-06 
      -6.79574725e-08       1.11406753e-07       1.52055230e-06 
       8.07103580e-08       1.18984695e-07       1.62398125e-06 
       6.96893245e-08       1.18984695e-07       1.62398123e-06 
      -8.07329643e-08       1.18984706e-07       1.62398115e-06 
      -6.97119309e-08       1.18984706e-07       1.62398117e-06 
       8.07103580e-08       1.18984695e-07       1.62398125e-06 
       6.96893245e-08       1.18984695e-07       1.62398123e-06 
      -8.07329643e-08       1.18984706e-07       1.62398115e-06 
      -6.97119309e-08       1.18984706e-07       1.62398117e-06 
       8.26836994e-08       1.26753031e-07       1.73000859e-06 
       7.13932065e-08       1.26753031e-07       1.73000856e-06 
      -8.27068454e-08       1.26753042e-07       1.73000848e-06 
      -7.14163524e-08       1.26753042e-07       1.73000851e-06 
       8.26836994e-08       1.26753031e-07       1.73000859e-06 
       7.13932065e-08       1.26753031e-07       1.73000856e-06 
      -8.27068454e-08       1.26753042e-07       1.73000848e-06 
      -7.14163524e-08       1.26753042e-07       1.73000851e-06 
       8.45990860e-08       1.34706240e-07       1.83855919e-06 
       7.30470453e-08       1.34706239e-07       1.83855917e-06 
      -8.46227755e-08       1.34706250e-07       1.83855908e-06 
      -7.30707352e-08       1.34706250e-07       1.83855911e-06 
       8.45990855e-08       1.34706240e-07       1.83855919e-06 
       7.30470453e-08       1.34706239e-07       1.83855917e-06 
      -8.46227759e-08       1.34706250e-07       1.83855908e-06 
      -7.30707357e-08       1.34706250e-07       1.83855911e-06 
       8.64604726e-08       1.42838934e-07       1.94955954e-06 
       7.46542699e-08       1.42838934e-07       1.94955952e-06 
      -8.64845271e-08       1.42838944e-07       1.94955943e-06 
      -7.46783244e-08       1.42838945e-07       1.94955945e-06 
       8.64604726e-08       1.42838934e-07       1.94955954e-06 
       7.46542699e-08       1.42838934e-07       1.94955952e-06 
      -8.64845271e-08       1.42838944e-07       1.94955943e-06 
      -7.46783244e-08       1.42838945e-07       1.94955945e-06 
       8.82716313e-08       1.51146217e-07       2.06294279e-06 
       7.62181234e-08       1.51146217e-07       2.06294276e-06 
      -8.82960558e-08       1.51146227e-07       2.06294267e-06 
      -7.62425478e-08       1.51146228e-07       2.06294269e-06 
       8.82716313e-08       1.51146217e-07       2.06294279e-06 
       7.62181234e-08       1.51146217e-07       2.06294276e-06 
      -8.82960558e-08       1.51146227e-07       2.06294267e-06 
      -7.62425478e-08       1.51146228e-07       2.06294269e-06 
       9.00325619e-08       1.59623314e-07       2.17864376e-06 
       7.77386062e-08       1.59623313e-07       2.17864374e-06 
      -9.00573611e-08       1.59623324e-07       2.17864364e-06 
      -7.77634055e-08       1.59623324e-07       2.17864366e-06 
       9.00325619e-08       1.59623314e-07       2.17864376e-06 
       7.77386062e-08       1.59623313e-07       2.17864374e-06 
      -9.00573611e-08       1.59623324e-07       2.17864364e-06 
      -7.77634055e-08       1.59623324e-07       2.17864366e-06 
       9.17432637e-08       1.68265450e-07       2.29659730e-06 
       7.92157175e-08       1.68265449e-07       2.29659727e-06 
      -9.17684440e-08       1.68265459e-07       2.29659717e-06 
      -7.92408978e-08       1.68265460e-07       2.29659720e-06 
       9.17432637e-08       1.68265450e-07       2.29659730e-06 
       7.92157175e-08       1.68265449e-07       2.29659727e-06 
      -9.17684440e-08       1.68265459e-07       2.29659717e-06 
      -7.92408978e-08       1.68265460e-07       2.29659720e-06 
       9.34037372e-08       1.77067849e-07       2.41673822e-06 
       8.06494578e-08       1.77067849e-07       2.41673819e-06 
      -9.34293038e-08       1.77067859e-07       2.41673809e-06 
      -8.06750249e-08       1.77067860e-07       2.41673811e-06 
       9.34037372e-08       1.77067849e-07       2.41673822e-06 
       8.06494578e-08       1.77067849e-07       2.41673819e-06 
      -9.34293038e-08       1.77067859e-07       2.41673809e-06 
      -8.06750249e-08       1.77067860e-07       2.41673811e-06 
       9.50139820e-08       1.86025738e-07       2.53900136e-06 
       8.20398278e-08       1.86025738e-07       2.53900133e-06 
      -9.50399404e-08       1.86025748e-07       2.53900123e-06 
      -8.20657857e-08       1.86025748e-07       2.53900125e-06 
       9.50139820e-08       1.86025738e-07       2.53900136e-06 
       8.20398278e-08       1.86025738e-07       2.53900133e-06 
      -9.50399404e-08       1.86025748e-07       2.53900123e-06 
      -8.20657857e-08       1.86025748e-07       2.53900125e-06 
       9.65739990e-08       1.95134341e-07       2.66332155e-06 
       8.33868263e-08       1.95134341e-07       2.66332152e-06 
      -9.66003539e-08       1.95134351e-07       2.66332141e-06 
      -8.34131813e-08       1.95134351e-07       2.66332144e-06 
       9.65739990e-08       1.95134341e-07       2.66332155e-06 
       8.33868263e-08       1.95134341e-07       2.66332152e-06 
      -9.66003539e-08       1.95134351e-07       2.66332141e-06 
      -8.34131813e-08       1.95134351e-07       2.66332144e-06 
       9.80837882e-08       2.04388884e-07       2.78963361e-06 
       8.46904546e-08       2.04388883e-07       2.78963359e-06 
      -9.81105437e-08       2.04388893e-07       2.78963347e-06 
      -8.47172101e-08       2.04388894e-07       2.78963350e-06 
       9.80837882e-08       2.04388884e-07       2.78963361e-06 
       8.46904546e-08       2.04388883e-07       2.78963359e-06 